# vtk DataFile Version 3.0
D2Q9 Periodic Hill Flow at timestep 2000
ASCII
DATASET STRUCTURED_GRID
DIMENSIONS 33 16 1
POINTS 528 double
0.0000000000e+00 1.0381750000e+00 0.0
2.8125000000e-01 1.0161249342e+00 0.0
5.6250000000e-01 8.4579376806e-01 0.0
8.4375000000e-01 6.0969528778e-01 0.0
1.1250000000e+00 3.8986862790e-01 0.0
1.4062500000e+00 1.9393900392e-01 0.0
1.6875000000e+00 7.1699397761e-02 0.0
1.9687500000e+00 3.8175000000e-02 0.0
2.2500000000e+00 3.8175000000e-02 0.0
2.5312500000e+00 3.8175000000e-02 0.0
2.8125000000e+00 3.8175000000e-02 0.0
3.0937500000e+00 3.8175000000e-02 0.0
3.3750000000e+00 3.8175000000e-02 0.0
3.6562500000e+00 3.8175000000e-02 0.0
3.9375000000e+00 3.8175000000e-02 0.0
4.2187500000e+00 3.8175000000e-02 0.0
4.5000000000e+00 3.8175000000e-02 0.0
4.7812500000e+00 3.8175000000e-02 0.0
5.0625000000e+00 3.8175000000e-02 0.0
5.3437500000e+00 3.8175000000e-02 0.0
5.6250000000e+00 3.8175000000e-02 0.0
5.9062500000e+00 3.8175000000e-02 0.0
6.1875000000e+00 3.8175000000e-02 0.0
6.4687500000e+00 3.8175000000e-02 0.0
6.7500000000e+00 3.8175000000e-02 0.0
7.0312500000e+00 3.8175000000e-02 0.0
7.3125000000e+00 7.1699397761e-02 0.0
7.5937500000e+00 1.9393900392e-01 0.0
7.8750000000e+00 3.8986862790e-01 0.0
8.1562500000e+00 6.0969528778e-01 0.0
8.4375000000e+00 8.4579376806e-01 0.0
8.7187500000e+00 1.0161249342e+00 0.0
9.0000000000e+00 1.0381750000e+00 0.0
0.0000000000e+00 1.1145250000e+00 0.0
2.8125000000e-01 1.0933340277e+00 0.0
5.6250000000e-01 9.2963914074e-01 0.0
8.4375000000e-01 7.0273930254e-01 0.0
1.1250000000e+00 4.9147731772e-01 0.0
1.4062500000e+00 3.0318131545e-01 0.0
1.6875000000e+00 1.8570429135e-01 0.0
1.9687500000e+00 1.5348603896e-01 0.0
2.2500000000e+00 1.5348603896e-01 0.0
2.5312500000e+00 1.5348603896e-01 0.0
2.8125000000e+00 1.5348603896e-01 0.0
3.0937500000e+00 1.5348603896e-01 0.0
3.3750000000e+00 1.5348603896e-01 0.0
3.6562500000e+00 1.5348603896e-01 0.0
3.9375000000e+00 1.5348603896e-01 0.0
4.2187500000e+00 1.5348603896e-01 0.0
4.5000000000e+00 1.5348603896e-01 0.0
4.7812500000e+00 1.5348603896e-01 0.0
5.0625000000e+00 1.5348603896e-01 0.0
5.3437500000e+00 1.5348603896e-01 0.0
5.6250000000e+00 1.5348603896e-01 0.0
5.9062500000e+00 1.5348603896e-01 0.0
6.1875000000e+00 1.5348603896e-01 0.0
6.4687500000e+00 1.5348603896e-01 0.0
6.7500000000e+00 1.5348603896e-01 0.0
7.0312500000e+00 1.5348603896e-01 0.0
7.3125000000e+00 1.8570429135e-01 0.0
7.5937500000e+00 3.0318131545e-01 0.0
7.8750000000e+00 4.9147731772e-01 0.0
8.1562500000e+00 7.0273930254e-01 0.0
8.4375000000e+00 9.2963914074e-01 0.0
8.7187500000e+00 1.0933340277e+00 0.0
9.0000000000e+00 1.1145250000e+00 0.0
0.0000000000e+00 1.2077762062e+00 0.0
2.8125000000e-01 1.1876345004e+00 0.0
5.6250000000e-01 1.0320449316e+00 0.0
8.4375000000e-01 8.1637999156e-01 0.0
1.1250000000e+00 6.1557859980e-01 0.0
1.4062500000e+00 4.3660603476e-01 0.0
1.6875000000e+00 3.2494586098e-01 0.0
1.9687500000e+00 2.9432288862e-01 0.0
2.2500000000e+00 2.9432288862e-01 0.0
2.5312500000e+00 2.9432288862e-01 0.0
2.8125000000e+00 2.9432288862e-01 0.0
3.0937500000e+00 2.9432288862e-01 0.0
3.3750000000e+00 2.9432288862e-01 0.0
3.6562500000e+00 2.9432288862e-01 0.0
3.9375000000e+00 2.9432288862e-01 0.0
4.2187500000e+00 2.9432288862e-01 0.0
4.5000000000e+00 2.9432288862e-01 0.0
4.7812500000e+00 2.9432288862e-01 0.0
5.0625000000e+00 2.9432288862e-01 0.0
5.3437500000e+00 2.9432288862e-01 0.0
5.6250000000e+00 2.9432288862e-01 0.0
5.9062500000e+00 2.9432288862e-01 0.0
6.1875000000e+00 2.9432288862e-01 0.0
6.4687500000e+00 2.9432288862e-01 0.0
6.7500000000e+00 2.9432288862e-01 0.0
7.0312500000e+00 2.9432288862e-01 0.0
7.3125000000e+00 3.2494586098e-01 0.0
7.5937500000e+00 4.3660603476e-01 0.0
7.8750000000e+00 6.1557859980e-01 0.0
8.1562500000e+00 8.1637999156e-01 0.0
8.4375000000e+00 1.0320449316e+00 0.0
8.7187500000e+00 1.1876345004e+00 0.0
9.0000000000e+00 1.2077762062e+00 0.0
0.0000000000e+00 1.3193302628e+00 0.0
2.8125000000e-01 1.3004437680e+00 0.0
5.6250000000e-01 1.1545503861e+00 0.0
8.4375000000e-01 9.5232547010e-01 0.0
1.1250000000e+00 7.6403782092e-01 0.0
1.4062500000e+00 5.9621864774e-01 0.0
1.6875000000e+00 4.9151702468e-01 0.0
1.9687500000e+00 4.6280244544e-01 0.0
2.2500000000e+00 4.6280244544e-01 0.0
2.5312500000e+00 4.6280244544e-01 0.0
2.8125000000e+00 4.6280244544e-01 0.0
3.0937500000e+00 4.6280244544e-01 0.0
3.3750000000e+00 4.6280244544e-01 0.0
3.6562500000e+00 4.6280244544e-01 0.0
3.9375000000e+00 4.6280244544e-01 0.0
4.2187500000e+00 4.6280244544e-01 0.0
4.5000000000e+00 4.6280244544e-01 0.0
4.7812500000e+00 4.6280244544e-01 0.0
5.0625000000e+00 4.6280244544e-01 0.0
5.3437500000e+00 4.6280244544e-01 0.0
5.6250000000e+00 4.6280244544e-01 0.0
5.9062500000e+00 4.6280244544e-01 0.0
6.1875000000e+00 4.6280244544e-01 0.0
6.4687500000e+00 4.6280244544e-01 0.0
6.7500000000e+00 4.6280244544e-01 0.0
7.0312500000e+00 4.6280244544e-01 0.0
7.3125000000e+00 4.9151702468e-01 0.0
7.5937500000e+00 5.9621864774e-01 0.0
7.8750000000e+00 7.6403782092e-01 0.0
8.1562500000e+00 9.5232547010e-01 0.0
8.4375000000e+00 1.1545503861e+00 0.0
8.7187500000e+00 1.3004437680e+00 0.0
9.0000000000e+00 1.3193302628e+00 0.0
0.0000000000e+00 1.4495132424e+00 0.0
2.8125000000e-01 1.4320915722e+00 0.0
5.6250000000e-01 1.2975135877e+00 0.0
8.4375000000e-01 1.1109731070e+00 0.0
1.1250000000e+00 9.3728892765e-01 0.0
1.4062500000e+00 7.8248570235e-01 0.0
1.6875000000e+00 6.8590467030e-01 0.0
1.9687500000e+00 6.5941717548e-01 0.0
2.2500000000e+00 6.5941717548e-01 0.0
2.5312500000e+00 6.5941717548e-01 0.0
2.8125000000e+00 6.5941717548e-01 0.0
3.0937500000e+00 6.5941717548e-01 0.0
3.3750000000e+00 6.5941717548e-01 0.0
3.6562500000e+00 6.5941717548e-01 0.0
3.9375000000e+00 6.5941717548e-01 0.0
4.2187500000e+00 6.5941717548e-01 0.0
4.5000000000e+00 6.5941717548e-01 0.0
4.7812500000e+00 6.5941717548e-01 0.0
5.0625000000e+00 6.5941717548e-01 0.0
5.3437500000e+00 6.5941717548e-01 0.0
5.6250000000e+00 6.5941717548e-01 0.0
5.9062500000e+00 6.5941717548e-01 0.0
6.1875000000e+00 6.5941717548e-01 0.0
6.4687500000e+00 6.5941717548e-01 0.0
6.7500000000e+00 6.5941717548e-01 0.0
7.0312500000e+00 6.5941717548e-01 0.0
7.3125000000e+00 6.8590467030e-01 0.0
7.5937500000e+00 7.8248570235e-01 0.0
7.8750000000e+00 9.3728892765e-01 0.0
8.1562500000e+00 1.1109731070e+00 0.0
8.4375000000e+00 1.2975135877e+00 0.0
8.7187500000e+00 1.4320915722e+00 0.0
9.0000000000e+00 1.4495132424e+00 0.0
0.0000000000e+00 1.5971143014e+00 0.0
2.8125000000e-01 1.5813534446e+00 0.0
5.6250000000e-01 1.4596048228e+00 0.0
8.4375000000e-01 1.2908473063e+00 0.0
1.1250000000e+00 1.1337204957e+00 0.0
1.4062500000e+00 9.9367471176e-01 0.0
1.6875000000e+00 9.0630078063e-01 0.0
1.9687500000e+00 8.8233834724e-01 0.0
2.2500000000e+00 8.8233834724e-01 0.0
2.5312500000e+00 8.8233834724e-01 0.0
2.8125000000e+00 8.8233834724e-01 0.0
3.0937500000e+00 8.8233834724e-01 0.0
3.3750000000e+00 8.8233834724e-01 0.0
3.6562500000e+00 8.8233834724e-01 0.0
3.9375000000e+00 8.8233834724e-01 0.0
4.2187500000e+00 8.8233834724e-01 0.0
4.5000000000e+00 8.8233834724e-01 0.0
4.7812500000e+00 8.8233834724e-01 0.0
5.0625000000e+00 8.8233834724e-01 0.0
5.3437500000e+00 8.8233834724e-01 0.0
5.6250000000e+00 8.8233834724e-01 0.0
5.9062500000e+00 8.8233834724e-01 0.0
6.1875000000e+00 8.8233834724e-01 0.0
6.4687500000e+00 8.8233834724e-01 0.0
6.7500000000e+00 8.8233834724e-01 0.0
7.0312500000e+00 8.8233834724e-01 0.0
7.3125000000e+00 9.0630078063e-01 0.0
7.5937500000e+00 9.9367471176e-01 0.0
7.8750000000e+00 1.1337204957e+00 0.0
8.1562500000e+00 1.2908473063e+00 0.0
8.4375000000e+00 1.4596048228e+00 0.0
8.7187500000e+00 1.5813534446e+00 0.0
9.0000000000e+00 1.5971143014e+00 0.0
0.0000000000e+00 1.7590868131e+00 0.0
2.8125000000e-01 1.7451484779e+00 0.0
5.6250000000e-01 1.6374783736e+00 0.0
8.4375000000e-01 1.4882352927e+00 0.0
1.1250000000e+00 1.3492779901e+00 0.0
1.4062500000e+00 1.2254265334e+00 0.0
1.6875000000e+00 1.1481561697e+00 0.0
1.9687500000e+00 1.1269646551e+00 0.0
2.2500000000e+00 1.1269646551e+00 0.0
2.5312500000e+00 1.1269646551e+00 0.0
2.8125000000e+00 1.1269646551e+00 0.0
3.0937500000e+00 1.1269646551e+00 0.0
3.3750000000e+00 1.1269646551e+00 0.0
3.6562500000e+00 1.1269646551e+00 0.0
3.9375000000e+00 1.1269646551e+00 0.0
4.2187500000e+00 1.1269646551e+00 0.0
4.5000000000e+00 1.1269646551e+00 0.0
4.7812500000e+00 1.1269646551e+00 0.0
5.0625000000e+00 1.1269646551e+00 0.0
5.3437500000e+00 1.1269646551e+00 0.0
5.6250000000e+00 1.1269646551e+00 0.0
5.9062500000e+00 1.1269646551e+00 0.0
6.1875000000e+00 1.1269646551e+00 0.0
6.4687500000e+00 1.1269646551e+00 0.0
6.7500000000e+00 1.1269646551e+00 0.0
7.0312500000e+00 1.1269646551e+00 0.0
7.3125000000e+00 1.1481561697e+00 0.0
7.5937500000e+00 1.2254265334e+00 0.0
7.8750000000e+00 1.3492779901e+00 0.0
8.1562500000e+00 1.4882352927e+00 0.0
8.4375000000e+00 1.6374783736e+00 0.0
8.7187500000e+00 1.7451484779e+00 0.0
9.0000000000e+00 1.7590868131e+00 0.0
0.0000000000e+00 1.9305824874e+00 0.0
2.8125000000e-01 1.9185738289e+00 0.0
5.6250000000e-01 1.8258099875e+00 0.0
8.4375000000e-01 1.6972286922e+00 0.0
1.1250000000e+00 1.5775091725e+00 0.0
1.4062500000e+00 1.4708041873e+00 0.0
1.6875000000e+00 1.4042314297e+00 0.0
1.9687500000e+00 1.3859737498e+00 0.0
2.2500000000e+00 1.3859737498e+00 0.0
2.5312500000e+00 1.3859737498e+00 0.0
2.8125000000e+00 1.3859737498e+00 0.0
3.0937500000e+00 1.3859737498e+00 0.0
3.3750000000e+00 1.3859737498e+00 0.0
3.6562500000e+00 1.3859737498e+00 0.0
3.9375000000e+00 1.3859737498e+00 0.0
4.2187500000e+00 1.3859737498e+00 0.0
4.5000000000e+00 1.3859737498e+00 0.0
4.7812500000e+00 1.3859737498e+00 0.0
5.0625000000e+00 1.3859737498e+00 0.0
5.3437500000e+00 1.3859737498e+00 0.0
5.6250000000e+00 1.3859737498e+00 0.0
5.9062500000e+00 1.3859737498e+00 0.0
6.1875000000e+00 1.3859737498e+00 0.0
6.4687500000e+00 1.3859737498e+00 0.0
6.7500000000e+00 1.3859737498e+00 0.0
7.0312500000e+00 1.3859737498e+00 0.0
7.3125000000e+00 1.4042314297e+00 0.0
7.5937500000e+00 1.4708041873e+00 0.0
[...]
POINT_DATA 528

SCALARS Density double 1
LOOKUP_TABLE default
5.3816747815e-01
5.4410422880e-01
5.4312235805e-01
5.3887201341e-01
5.2439383122e-01
5.0703892266e-01
5.5114845676e-01
5.5524307241e-01
5.6579999828e-01
5.4542711565e-01
5.0785719585e-01
5.0510941727e-01
5.2904748805e-01
6.0320793103e-01
5.8846331581e-01
5.5713307268e-01
4.8129043395e-01
4.7556819593e-01
4.3235791618e-01
4.1804295511e-01
4.1641902257e-01
4.2120508723e-01
4.3894706150e-01
4.4420811603e-01
4.6791617209e-01
4.7187563616e-01
4.7703467431e-01
4.4418606320e-01
3.9562569490e-01
3.8243851959e-01
3.8185046849e-01
4.1415593370e-01
4.0537121556e-01
5.1430659502e-01
5.2858830326e-01
5.5164017450e-01
5.5861358232e-01
5.3815923666e-01
5.4603599043e-01
5.6611225830e-01
5.9002734174e-01
5.6310593883e-01
5.1158790906e-01
4.8744381046e-01
4.7295277295e-01
6.0385681945e-01
6.0834671827e-01
6.1734989186e-01
5.1224583968e-01
4.7087038408e-01
4.5601329908e-01
4.2778249587e-01
4.0197066960e-01
3.8170317906e-01
3.7885393305e-01
3.9866475928e-01
4.4050050837e-01
4.5482128821e-01
4.6866316582e-01
4.5353585887e-01
4.3821961909e-01
4.1976755488e-01
3.8709441204e-01
3.8448701398e-01
3.9076976755e-01
3.8610368545e-01
5.3921714777e-01
5.7552046816e-01
5.7435381385e-01
5.6414902787e-01
5.5946762021e-01
5.7524907626e-01
6.0093207420e-01
5.7665309951e-01
5.2325616333e-01
4.8342194097e-01
4.8964766299e-01
5.9522168455e-01
6.1947920432e-01
6.1116782829e-01
5.1471109472e-01
4.8186063163e-01
4.5817423615e-01
4.2551026174e-01
4.0209301725e-01
3.7237357262e-01
3.7087755599e-01
3.9288681950e-01
4.3020031234e-01
4.5368514702e-01
4.6354811869e-01
4.5589066607e-01
4.5252806788e-01
4.3528546282e-01
4.0821580574e-01
3.8865985201e-01
3.7852134132e-01
3.7628431144e-01
3.9688691281e-01
5.6336976234e-01
5.8061640935e-01
5.7641474973e-01
5.6695783537e-01
5.7806698641e-01
6.0098252271e-01
5.7640907771e-01
5.1882326979e-01
4.7904070287e-01
4.8210623603e-01
6.0103169683e-01
6.1241658282e-01
6.1756842725e-01
5.0742406381e-01
4.8491514201e-01
4.6297582016e-01
4.1664609049e-01
4.0273843546e-01
3.6657047995e-01
3.6921227557e-01
3.9501536538e-01
4.2953694315e-01
4.5525078354e-01
4.6387096408e-01
4.5783898711e-01
4.5694343780e-01
4.4194325547e-01
4.0728893208e-01
3.8679137761e-01
3.7336244224e-01
3.7297965362e-01
3.9635350615e-01
4.4915648775e-01
5.8459131666e-01
5.7519439245e-01
5.6308300694e-01
5.7877735907e-01
5.9943093370e-01
5.7532214232e-01
5.1481173393e-01
4.7707684806e-01
4.7885966799e-01
6.0839163466e-01
6.1302332830e-01
6.2640310423e-01
4.9931873738e-01
4.8488411442e-01
4.6246652542e-01
4.1313643447e-01
4.0083212314e-01
3.6248313130e-01
3.6860556068e-01
3.9828838250e-01
4.3244966116e-01
4.5678361443e-01
4.6586816781e-01
4.5916142272e-01
4.5945013450e-01
4.4355807173e-01
4.0713424781e-01
3.7884385354e-01
3.7025367912e-01
3.7240652610e-01
3.9944614595e-01
4.6053545341e-01
4.6738126490e-01
5.7727701180e-01
5.5920155595e-01
5.8018361385e-01
5.9960322509e-01
5.7441244627e-01
5.1211249133e-01
4.7629433250e-01
4.7700421470e-01
6.1152675259e-01
6.1541901529e-01
6.2707587442e-01
4.9668248707e-01
4.8191390059e-01
4.6467773213e-01
4.1213341787e-01
3.9752590208e-01
3.6122527830e-01
3.6857903365e-01
3.9992569720e-01
4.3405695383e-01
4.5648709955e-01
4.6627311267e-01
4.5978255178e-01
4.6074931059e-01
4.4238574891e-01
4.0530021671e-01
3.7361953427e-01
3.6874147271e-01
3.7320475036e-01
3.9543831511e-01
4.6329614109e-01
4.7008406877e-01
4.8102117521e-01
5.5736376825e-01
5.7945734192e-01
5.9986990863e-01
5.7429791359e-01
5.1101116555e-01
4.7628891306e-01
4.7411105458e-01
6.1340493051e-01
6.1676408403e-01
6.2703477535e-01
4.9532390688e-01
4.7960957292e-01
4.6618229327e-01
4.1160553701e-01
3.9476477012e-01
3.6098280464e-01
3.6816490658e-01
4.0097067024e-01
4.3543271343e-01
4.5620972190e-01
4.6699490269e-01
4.6013548072e-01
4.6189134719e-01
4.4147837821e-01
4.0347907259e-01
3.7104673311e-01
3.6745455145e-01
3.7410595704e-01
3.9297881166e-01
4.6692571274e-01
4.7266772842e-01
4.8091026957e-01
4.9909462895e-01
5.7852289792e-01
6.0020500621e-01
5.7388795908e-01
5.1141731713e-01
4.7722884571e-01
4.7296185057e-01
6.1423063759e-01
6.1716035839e-01
6.2715275025e-01
4.9472484471e-01
4.7813616179e-01
4.6700904703e-01
4.1174289864e-01
3.9285117639e-01
3.6119265351e-01
3.6790428208e-01
4.0145141871e-01
4.3638288496e-01
4.5585656984e-01
4.6752681295e-01
4.5997317062e-01
4.6273414412e-01
4.4092993895e-01
4.0247733174e-01
3.7065085293e-01
3.6667473271e-01
3.7499722427e-01
3.9027640371e-01
4.6890171903e-01
4.7397049061e-01
4.8050860882e-01
5.0157949609e-01
4.9432889518e-01
6.0024136480e-01
5.7421151378e-01
5.1206025457e-01
4.7968549112e-01
4.7278554414e-01
6.1448041631e-01
6.1597685086e-01
6.2742651423e-01
4.9484059242e-01
4.7702616425e-01
4.6719109798e-01
4.1234101027e-01
3.9179962569e-01
3.6176805000e-01
3.6775732188e-01
4.0131060794e-01
4.3704876093e-01
4.5548257096e-01
4.6789757953e-01
4.5935193345e-01
4.6325855420e-01
4.4077205599e-01
4.0216485946e-01
3.7073002975e-01
3.6628706655e-01
3.7562011097e-01
3.8821211745e-01
4.6926163248e-01
4.7507546803e-01
4.7896573137e-01
5.0367633828e-01
4.9324513054e-01
4.9228772512e-01
5.7519011168e-01
5.1537478359e-01
4.8392452785e-01
4.7240808893e-01
6.1400306578e-01
6.1348350767e-01
6.2994761350e-01
4.9592479180e-01
4.7607878797e-01
4.6681340804e-01
4.1343365062e-01
3.9157358032e-01
3.6267558169e-01
3.6769189112e-01
4.0059015730e-01
4.3745847079e-01
4.5505889124e-01
4.6813498379e-01
4.5826813053e-01
4.6348233175e-01
4.4104023484e-01
4.0251853829e-01
3.7122354670e-01
3.6575374504e-01
3.7610604216e-01
3.8734192889e-01
4.6858817705e-01
4.7610128678e-01
4.7757587311e-01
5.0472199950e-01
4.9254089873e-01
4.9060566436e-01
4.2025797349e-01
5.1846757993e-01
4.8859057611e-01
4.7392220742e-01
6.1179615413e-01
6.0998606134e-01
6.3120989385e-01
5.0109238656e-01
4.7505150758e-01
4.6588999896e-01
4.1511732910e-01
3.9211763654e-01
3.6400153291e-01
3.6771201354e-01
3.9937168165e-01
4.3755448416e-01
4.5465235119e-01
4.6820689724e-01
4.5668374723e-01
4.6341443415e-01
4.4171832649e-01
4.0349889785e-01
3.7222111593e-01
3.6500691538e-01
3.7669722981e-01
3.8731014905e-01
4.6724043324e-01
4.7704458941e-01
4.7612514004e-01
5.0604722384e-01
4.9064950671e-01
4.9048442245e-01
4.1982055015e-01
4.1206288809e-01
4.9448076985e-01
4.7944646900e-01
6.0597090820e-01
6.0667684538e-01
6.2940903722e-01
5.0720273202e-01
4.7373190888e-01
4.6445099507e-01
4.1720932520e-01
3.9339962682e-01
3.6583489687e-01
3.6766032283e-01
3.9769873980e-01
4.3713979859e-01
4.5453944284e-01
4.6745990961e-01
4.5471649156e-01
4.6276586737e-01
4.4261732410e-01
4.0511505747e-01
3.7362960835e-01
3.6407385634e-01
3.7732634735e-01
3.8716183015e-01
4.6543889554e-01
4.7761084717e-01
4.7571298710e-01
5.0596626932e-01
4.8862337329e-01
4.9214914699e-01
4.1939554847e-01
4.1236941596e-01
3.9064862564e-01
4.8796451892e-01
5.8919204793e-01
6.0686517618e-01
6.2101506532e-01
5.1244289938e-01
4.7590948040e-01
4.6138884015e-01
4.2052880665e-01
3.9578919496e-01
3.6760673204e-01
3.6798515082e-01
3.9584462144e-01
4.3591877698e-01
4.5438010419e-01
4.6496243631e-01
4.5371520723e-01
4.6063939632e-01
4.4491915699e-01
4.0723357460e-01
3.7486585407e-01
3.6538156664e-01
3.7545109511e-01
3.8924529685e-01
4.6262065819e-01
4.7716821780e-01
4.7727501901e-01
5.0054681097e-01
4.9279450941e-01
4.8613681095e-01
4.2584312490e-01
4.1026837079e-01
3.9351657956e-01
3.9085196110e-01
5.8061094720e-01
6.2446919230e-01
6.0622172543e-01
5.2294280604e-01
4.8030080711e-01
4.5617979091e-01
4.2353057276e-01
3.9755253683e-01
3.6696630526e-01
3.6861558807e-01
3.9362918758e-01
4.3197853107e-01
4.5497270613e-01
4.6154667635e-01
4.5668990001e-01
4.5720955969e-01
4.4732997274e-01
4.0825311113e-01
3.7610052473e-01
3.6524763805e-01
3.7086212243e-01
3.9343402988e-01
4.5727048594e-01
4.7571664894e-01
4.7975873927e-01
4.9623569100e-01
4.9874294325e-01
4.7933682857e-01
4.3560993097e-01
4.0542892782e-01
3.9340611398e-01
3.9222283107e-01
4.2525494120e-01
6.3834103437e-01
6.0924595576e-01
5.3123291668e-01
4.9401322838e-01
4.5501144628e-01
4.1947252678e-01
3.9991621627e-01
3.5192291092e-01
3.5971593562e-01
3.8379579450e-01
4.2087920547e-01
4.5283614443e-01
4.5851492525e-01
4.5802533854e-01
4.5467427741e-01
4.4702900403e-01
4.0533828812e-01
3.6782771463e-01
3.5830841951e-01
3.5978687197e-01
3.8500383950e-01
4.5672632472e-01
4.6662747407e-01
4.8178935276e-01
4.9458987369e-01
5.0141970936e-01
4.8611642140e-01
4.2813047440e-01
4.0832917309e-01
3.7973804315e-01
3.8447632565e-01
4.1643934836e-01
4.5265700437e-01
6.3580970996e-01
5.5874071683e-01
5.1331498678e-01
4.7266253603e-01
4.5105777928e-01
3.9586518742e-01
3.3433715503e-01
3.2494792420e-01
3.4630347425e-01
4.0159779860e-01
4.3572008556e-01
4.4575934922e-01
4.6061573136e-01
4.6565831682e-01
4.7484168328e-01
4.1844343856e-01
3.5680268347e-01
3.3112815356e-01
3.3533991224e-01
3.5596956187e-01
4.2255719840e-01
4.6355465609e-01
4.7323247003e-01
4.8406715876e-01
5.0275821441e-01
5.0478087420e-01
4.5950955849e-01
3.9664078669e-01
3.6560498515e-01
3.6476746766e-01
3.9592551685e-01
4.3757147331e-01
4.5972942774e-01

VECTORS Velocity double
-4.2879664254e-02 8.9000372661e-02 0.0
-5.0578900218e-02 1.1335970214e-01 0.0
-2.5843692744e-02 7.6824087837e-03 0.0
2.7630289861e-03 -3.6182298185e-02 0.0
-1.6216947778e-02 9.0602292339e-03 0.0
-3.2842795572e-04 -2.9535835493e-02 0.0
-6.2047982944e-02 8.5657381140e-02 0.0
3.0923330815e-03 1.0479997160e-02 0.0
-2.6743344542e-02 7.0744864953e-02 0.0
-3.4774443051e-02 4.9157368917e-02 0.0
-3.4126577681e-02 6.7284080494e-02 0.0
-5.8856827950e-02 7.2763181394e-02 0.0
-5.7465023468e-02 1.2030413621e-01 0.0
1.4280404233e-01 -3.5038815567e-02 0.0
1.4237487060e-01 3.0907517013e-03 0.0
1.5039875220e-01 -2.1470149479e-02 0.0
-3.2111773658e-02 -3.7964783063e-03 0.0
-3.2196959155e-02 -2.5815342653e-03 0.0
-3.6399741462e-02 2.8109541165e-03 0.0
-6.6504793226e-02 -1.3224635906e-02 0.0
-4.4253359197e-02 3.9509395430e-02 0.0
-3.6295469630e-02 2.0657865328e-02 0.0
-2.9700838264e-02 -4.3914187820e-03 0.0
4.3188168098e-03 1.6128766919e-02 0.0
6.4375057686e-03 2.0967697751e-02 0.0
8.2518336831e-03 5.0243030271e-03 0.0
1.2018439489e-03 1.7384250699e-02 0.0
1.3763455760e-02 5.8534997276e-04 0.0
2.6020520960e-02 -7.9332140757e-03 0.0
1.4794134034e-01 1.4254209895e-01 0.0
1.6952157102e-01 1.8233842963e-01 0.0
-5.3395303583e-02 -6.7180540608e-02 0.0
-1.6593886040e-02 9.8447940909e-02 0.0
-2.2026632168e-03 -8.1000250524e-02 0.0
1.6824332461e-02 -7.9521393596e-02 0.0
2.7470985827e-02 -2.1935881582e-02 0.0
2.7007826100e-02 -2.3332364303e-04 0.0
-3.1076276672e-02 -3.7021698849e-02 0.0
-4.4985012408e-04 8.6364965445e-04 0.0
-4.5879204302e-03 1.2547799707e-02 0.0
6.0762536586e-03 5.8429972139e-02 0.0
-1.4082840914e-02 3.4423077311e-02 0.0
-1.1899700087e-02 1.1129571247e-02 0.0
-2.5463065957e-02 -8.9255215738e-03 0.0
-3.8344693396e-02 -8.8005590880e-02 0.0
1.3157090315e-01 9.4919608917e-03 0.0
1.4004284905e-01 4.1105283346e-02 0.0
1.5569455256e-01 8.8026065229e-02 0.0
-1.2768053398e-02 5.4792287014e-02 0.0
-3.4704741550e-02 -1.6116090087e-02 0.0
-3.0391893705e-02 3.5566859431e-02 0.0
-7.7600446960e-02 2.9838734953e-02 0.0
-6.9212422227e-02 -2.2667542064e-02 0.0
-6.6220334856e-02 -8.8796925834e-02 0.0
-4.7701999074e-02 -1.2779885983e-01 0.0
-6.2392351925e-03 -8.5610308223e-02 0.0
-5.2200712271e-03 -3.8849506940e-02 0.0
-7.0158815958e-03 -3.9484389799e-02 0.0
9.1647751527e-04 -1.6188979689e-03 0.0
1.7415550853e-03 -3.8312740535e-04 0.0
1.5104655995e-02 7.9690773007e-03 0.0
-1.5631917788e-02 4.8412029746e-02 0.0
-4.1413240464e-02 -6.8280211473e-02 0.0
-4.8922947900e-02 -1.1376237509e-01 0.0
-3.4438288187e-02 -2.5189328413e-02 0.0
-5.2769271754e-02 -9.2517163842e-02 0.0
2.2957655860e-02 -3.3086932942e-02 0.0
1.5299197012e-02 1.0025223030e-03 0.0
8.9452519400e-03 1.3783625220e-02 0.0
-7.9357832549e-03 1.6219814390e-02 0.0
-7.0520560846e-03 2.6210555127e-02 0.0
-7.4514441546e-03 3.5994560692e-02 0.0
6.3925208158e-03 6.6050274428e-02 0.0
-1.2014706238e-02 5.4342955296e-02 0.0
-1.2631888079e-02 2.8286946958e-02 0.0
-2.8755258462e-02 -5.8663682555e-03 0.0
-3.0080851297e-02 -4.6001353290e-02 0.0
1.3201516550e-01 -2.4513398638e-03 0.0
1.4405535017e-01 4.8993661593e-02 0.0
1.5101523890e-01 7.0766323930e-02 0.0
-1.2314135001e-02 6.2382271597e-02 0.0
-3.5037333857e-02 -3.5788217189e-03 0.0
-3.2891474910e-02 2.3334491543e-02 0.0
-7.0691009920e-02 4.2552975354e-02 0.0
-7.4321987431e-02 -3.0354152663e-02 0.0
-6.4170945286e-02 -9.4846187056e-02 0.0
-5.2937932203e-02 -1.3963804771e-01 0.0
-4.9931370643e-03 -1.0137382041e-01 0.0
-5.5315203120e-03 -5.2228560388e-02 0.0
-6.4487010892e-03 -3.8507455810e-02 0.0
-1.5646379700e-04 -1.7655591618e-02 0.0
4.1375823453e-03 -2.3359188201e-03 0.0
2.3324046303e-02 2.8008107591e-02 0.0
-1.5408228928e-02 5.7644595099e-02 0.0
-4.9689484451e-02 -8.3402446942e-03 0.0
-5.2216286672e-02 -8.0342718956e-02 0.0
-4.0198639690e-02 -7.7436265657e-02 0.0
-5.6272845517e-02 -8.0356472079e-02 0.0
-3.0574664496e-02 -9.7863229615e-02 0.0
2.0823104170e-02 -4.0495520438e-03 0.0
1.0290736863e-02 2.2644587618e-02 0.0
-6.3866988567e-03 2.6648756193e-02 0.0
-8.8380740925e-03 3.0679791657e-02 0.0
-8.5369036589e-03 3.6723819278e-02 0.0
1.1055113108e-02 6.0221244601e-02 0.0
-9.2396427740e-03 5.5198463430e-02 0.0
-1.4918297606e-02 1.9261675571e-02 0.0
-2.7391049034e-02 -1.2548755225e-02 0.0
-2.9955713334e-02 -3.9294689307e-02 0.0
1.3239112012e-01 -6.1387122975e-03 0.0
1.4869335263e-01 6.1858162778e-02 0.0
1.4625350522e-01 6.4021475347e-02 0.0
-1.2239548878e-02 6.2732279182e-02 0.0
-3.7581859467e-02 -1.2030946539e-02 0.0
-3.2601849899e-02 1.5848957329e-02 0.0
-6.7290797914e-02 5.2079381692e-02 0.0
-7.8789138677e-02 -4.6588734386e-02 0.0
-6.0205790988e-02 -9.4665769742e-02 0.0
-5.8188721134e-02 -1.4197450027e-01 0.0
-2.7814443607e-03 -9.7398649212e-02 0.0
-6.3088505301e-03 -4.0871293953e-02 0.0
-6.4446531165e-03 -3.5341380201e-02 0.0
-2.9248479456e-04 -2.0765615367e-02 0.0
4.6406750997e-03 1.1913246755e-03 0.0
2.6331502093e-02 2.8024938403e-02 0.0
-9.1545100173e-03 5.3554800996e-02 0.0
-4.1250191175e-02 -3.5913058059e-03 0.0
-5.1775844569e-02 -8.1976765315e-02 0.0
-4.1074220021e-02 -8.7865594616e-02 0.0
-5.0316027998e-02 -7.6674163261e-02 0.0
-2.4223271849e-02 -9.4434004783e-02 0.0
-2.8137972315e-02 -6.2068222580e-02 0.0
1.0929513817e-02 1.5133804761e-02 0.0
-6.0382019308e-03 2.7919382062e-02 0.0
-9.9841192895e-03 3.3041447070e-02 0.0
-7.6697913302e-03 4.0724735934e-02 0.0
1.1581931459e-02 6.2586440569e-02 0.0
-8.0492529572e-03 4.9648416448e-02 0.0
-1.1679594925e-02 1.5855396056e-02 0.0
-2.7619329157e-02 -1.7079175679e-02 0.0
-2.9849643480e-02 -3.7694527265e-02 0.0
1.3371370662e-01 2.7432658268e-03 0.0
1.4789181365e-01 5.7794839460e-02 0.0
1.4463046442e-01 6.5680021299e-02 0.0
-1.5890618957e-02 5.0526736329e-02 0.0
-3.6726909931e-02 -1.0117824583e-02 0.0
-3.2848342544e-02 1.0993677949e-02 0.0
-6.6818658806e-02 4.9682807786e-02 0.0
-7.8188940259e-02 -4.7918730920e-02 0.0
-6.2098866247e-02 -1.0096741628e-01 0.0
-5.8414261291e-02 -1.3955757597e-01 0.0
-3.3857988171e-03 -9.5701120308e-02 0.0
-5.7832378026e-03 -3.8529521784e-02 0.0
-6.5566480438e-03 -3.5211751993e-02 0.0
-2.5024575669e-04 -2.0757799287e-02 0.0
4.4075209018e-03 -1.6645644708e-03 0.0
2.7070341461e-02 3.3406362519e-02 0.0
-2.1707692006e-03 4.7839897539e-02 0.0
-4.1883095428e-02 -5.6057580772e-03 0.0
-4.7647235256e-02 -8.6856701378e-02 0.0
-4.2280019059e-02 -9.6669958989e-02 0.0
-5.2945603031e-02 -7.9072605114e-02 0.0
-1.9242886721e-02 -8.6020834696e-02 0.0
-2.2020812845e-02 -5.4496557361e-02 0.0
-3.5209414031e-02 -1.6127087101e-02 0.0
-4.6431176295e-03 3.0000657774e-02 0.0
-1.4868584279e-02 3.2211491724e-02 0.0
-6.3207210302e-03 4.2449604690e-02 0.0
1.0745114191e-02 6.4154316900e-02 0.0
-7.5057939642e-03 4.7964758283e-02 0.0
-9.3201303797e-03 1.5079597632e-02 0.0
-2.6614441955e-02 -1.9494006856e-02 0.0
-2.9962296794e-02 -3.5434333413e-02 0.0
1.3508774890e-01 9.4178490243e-03 0.0
1.4667792675e-01 5.6179406980e-02 0.0
1.4488596756e-01 6.7114561005e-02 0.0
-1.8531373721e-02 4.3951801813e-02 0.0
-3.6178434302e-02 -1.3496991339e-02 0.0
-3.2840225078e-02 9.6025874482e-03 0.0
-6.6418146567e-02 4.6428037890e-02 0.0
-7.7903147341e-02 -5.1066048281e-02 0.0
-6.3396353534e-02 -1.0431414457e-01 0.0
-5.8328162982e-02 -1.3761790380e-01 0.0
-3.9279273045e-03 -9.3363914123e-02 0.0
-5.3998603699e-03 -3.5768952028e-02 0.0
-6.6395169514e-03 -3.3913863707e-02 0.0
-2.1827207193e-04 -2.0251875107e-02 0.0
4.2185764795e-03 -2.9045315236e-03 0.0
2.7591762187e-02 3.7048228142e-02 0.0
-1.5192036374e-03 4.5743480574e-02 0.0
-4.2281434949e-02 -1.0568747363e-02 0.0
-4.4403547314e-02 -8.8266574670e-02 0.0
-4.3730386597e-02 -1.0139819181e-01 0.0
-5.4339780027e-02 -7.6639931847e-02 0.0
-2.2850089962e-02 -7.3577886786e-02 0.0
-1.5077824945e-02 -4.7908503702e-02 0.0
-3.6622494142e-02 -1.1230621489e-02 0.0
-3.3398067571e-02 -1.7354723993e-02 0.0
-1.6893175877e-02 3.0293203735e-02 0.0
-2.1013581279e-03 4.5309510344e-02 0.0
9.5458561951e-03 6.5125557472e-02 0.0
-7.4543197666e-03 4.7775926846e-02 0.0
-8.7023274437e-03 1.4894012148e-02 0.0
-2.5839557764e-02 -2.0472518816e-02 0.0
-3.8135368035e-02 -3.6320453171e-02 0.0
1.3585054815e-01 1.4184414663e-02 0.0
1.4577365648e-01 5.4279547383e-02 0.0
1.4531503381e-01 6.8388625033e-02 0.0
-2.0404991598e-02 3.8263088990e-02 0.0
-3.5723321757e-02 -1.5259242327e-02 0.0
-3.2797519183e-02 1.0108952516e-02 0.0
-6.6340867065e-02 4.3457189683e-02 0.0
-7.7592205267e-02 -5.2867494061e-02 0.0
-6.4358709182e-02 -1.0600804079e-01 0.0
-5.8156408167e-02 -1.3661054192e-01 0.0
-4.3714323306e-03 -9.1580783545e-02 0.0
-5.1308640125e-03 -3.4295438551e-02 0.0
-6.6903063711e-03 -3.3281209171e-02 0.0
-1.7424920027e-04 -1.9644426873e-02 0.0
4.0643791854e-03 -3.8894233594e-03 0.0
2.7881774643e-02 3.9398888012e-02 0.0
-1.0474835713e-03 4.4375495899e-02 0.0
-4.3198171249e-02 -1.5392448343e-02 0.0
-4.2737624024e-02 -8.8916999627e-02 0.0
-4.5293668442e-02 -1.0379923934e-01 0.0
-5.4968709473e-02 -7.5625934827e-02 0.0
-2.4949951926e-02 -6.6367992683e-02 0.0
-1.9943043180e-02 -4.3483791371e-02 0.0
-3.7728665265e-02 -9.9612392696e-03 0.0
-3.1389361994e-02 -1.8152258725e-02 0.0
4.5613380308e-04 -1.2996457842e-02 0.0
-9.3228324843e-04 4.7020753810e-02 0.0
5.2552620470e-03 6.7541614772e-02 0.0
-7.4630343821e-03 4.9301984914e-02 0.0
-8.8927306243e-03 1.6536612546e-02 0.0
-2.5446249562e-02 -2.0299280330e-02 0.0
-4.4723985357e-02 -3.9109326162e-02 0.0
1.3042064671e-01 1.6002727929e-02 0.0
1.4514998423e-01 5.2373202848e-02 0.0
1.4575495513e-01 7.0090172428e-02 0.0
-2.1650117425e-02 3.4299351993e-02 0.0
-3.5358831296e-02 -1.6026672969e-02 0.0
-3.2708578918e-02 1.1277973847e-02 0.0
-6.6522783726e-02 4.0786321569e-02 0.0
-7.7189841318e-02 -5.3447424622e-02 0.0
-6.5100043460e-02 -1.0705682445e-01 0.0
-5.7831551107e-02 -1.3626433253e-01 0.0
-4.7158275114e-03 -9.0306981474e-02 0.0
-4.9628247321e-03 -3.3675711912e-02 0.0
-6.7257036154e-03 -3.3100517169e-02 0.0
-1.0565790823e-04 -1.8937013836e-02 0.0
3.9410478420e-03 -4.8847786761e-03 0.0
2.7962630027e-02 4.0804569316e-02 0.0
-6.7884762200e-04 4.3798109468e-02 0.0
-4.3810310744e-02 -1.8295450770e-02 0.0
-4.2650533654e-02 -8.9306309467e-02 0.0
-4.6304021700e-02 -1.0415599784e-01 0.0
-5.4969403659e-02 -7.4757291674e-02 0.0
-2.7721803921e-02 -6.2420038334e-02 0.0
-2.4022271231e-02 -3.9244607199e-02 0.0
-3.6338639566e-02 -9.4695212329e-03 0.0
-2.9496170411e-02 -1.8129922785e-02 0.0
2.8601871638e-03 -1.0528968317e-02 0.0
5.9190174991e-03 6.3031148488e-03 0.0
3.7013145975e-03 6.9085106576e-02 0.0
-1.1262534381e-02 5.0409286219e-02 0.0
-9.0712232740e-03 1.9848918501e-02 0.0
-2.4944691270e-02 -1.9157811855e-02 0.0
-4.7660862688e-02 -4.3592888559e-02 0.0
1.2625052715e-01 1.6516744955e-02 0.0
1.4478402969e-01 5.0763515202e-02 0.0
1.4636472874e-01 7.2286034428e-02 0.0
-2.2351847054e-02 3.1920900951e-02 0.0
-3.5108349096e-02 -1.6306981688e-02 0.0
-3.2564212124e-02 1.3138870870e-02 0.0
-6.6998869758e-02 3.8614912520e-02 0.0
-7.6663518423e-02 -5.2981540850e-02 0.0
-6.5673233436e-02 -1.0775715080e-01 0.0