# vtk DataFile Version 3.0
D2Q9 Periodic Hill Flow at timestep 11000
ASCII
DATASET STRUCTURED_GRID
DIMENSIONS 33 16 1
POINTS 528 double
0.0000000000e+00 1.0381750000e+00 0.0
2.8125000000e-01 1.0161249342e+00 0.0
5.6250000000e-01 8.4579376806e-01 0.0
8.4375000000e-01 6.0969528778e-01 0.0
1.1250000000e+00 3.8986862790e-01 0.0
1.4062500000e+00 1.9393900392e-01 0.0
1.6875000000e+00 7.1699397761e-02 0.0
1.9687500000e+00 3.8175000000e-02 0.0
2.2500000000e+00 3.8175000000e-02 0.0
2.5312500000e+00 3.8175000000e-02 0.0
2.8125000000e+00 3.8175000000e-02 0.0
3.0937500000e+00 3.8175000000e-02 0.0
3.3750000000e+00 3.8175000000e-02 0.0
3.6562500000e+00 3.8175000000e-02 0.0
3.9375000000e+00 3.8175000000e-02 0.0
4.2187500000e+00 3.8175000000e-02 0.0
4.5000000000e+00 3.8175000000e-02 0.0
4.7812500000e+00 3.8175000000e-02 0.0
5.0625000000e+00 3.8175000000e-02 0.0
5.3437500000e+00 3.8175000000e-02 0.0
5.6250000000e+00 3.8175000000e-02 0.0
5.9062500000e+00 3.8175000000e-02 0.0
6.1875000000e+00 3.8175000000e-02 0.0
6.4687500000e+00 3.8175000000e-02 0.0
6.7500000000e+00 3.8175000000e-02 0.0
7.0312500000e+00 3.8175000000e-02 0.0
7.3125000000e+00 7.1699397761e-02 0.0
7.5937500000e+00 1.9393900392e-01 0.0
7.8750000000e+00 3.8986862790e-01 0.0
8.1562500000e+00 6.0969528778e-01 0.0
8.4375000000e+00 8.4579376806e-01 0.0
8.7187500000e+00 1.0161249342e+00 0.0
9.0000000000e+00 1.0381750000e+00 0.0
0.0000000000e+00 1.1145250000e+00 0.0
2.8125000000e-01 1.0933340277e+00 0.0
5.6250000000e-01 9.2963914074e-01 0.0
8.4375000000e-01 7.0273930254e-01 0.0
1.1250000000e+00 4.9147731772e-01 0.0
1.4062500000e+00 3.0318131545e-01 0.0
1.6875000000e+00 1.8570429135e-01 0.0
1.9687500000e+00 1.5348603896e-01 0.0
2.2500000000e+00 1.5348603896e-01 0.0
2.5312500000e+00 1.5348603896e-01 0.0
2.8125000000e+00 1.5348603896e-01 0.0
3.0937500000e+00 1.5348603896e-01 0.0
3.3750000000e+00 1.5348603896e-01 0.0
3.6562500000e+00 1.5348603896e-01 0.0
3.9375000000e+00 1.5348603896e-01 0.0
4.2187500000e+00 1.5348603896e-01 0.0
4.5000000000e+00 1.5348603896e-01 0.0
4.7812500000e+00 1.5348603896e-01 0.0
5.0625000000e+00 1.5348603896e-01 0.0
5.3437500000e+00 1.5348603896e-01 0.0
5.6250000000e+00 1.5348603896e-01 0.0
5.9062500000e+00 1.5348603896e-01 0.0
6.1875000000e+00 1.5348603896e-01 0.0
6.4687500000e+00 1.5348603896e-01 0.0
6.7500000000e+00 1.5348603896e-01 0.0
7.0312500000e+00 1.5348603896e-01 0.0
7.3125000000e+00 1.8570429135e-01 0.0
7.5937500000e+00 3.0318131545e-01 0.0
7.8750000000e+00 4.9147731772e-01 0.0
8.1562500000e+00 7.0273930254e-01 0.0
8.4375000000e+00 9.2963914074e-01 0.0
8.7187500000e+00 1.0933340277e+00 0.0
9.0000000000e+00 1.1145250000e+00 0.0
0.0000000000e+00 1.2077762062e+00 0.0
2.8125000000e-01 1.1876345004e+00 0.0
5.6250000000e-01 1.0320449316e+00 0.0
8.4375000000e-01 8.1637999156e-01 0.0
1.1250000000e+00 6.1557859980e-01 0.0
1.4062500000e+00 4.3660603476e-01 0.0
1.6875000000e+00 3.2494586098e-01 0.0
1.9687500000e+00 2.9432288862e-01 0.0
2.2500000000e+00 2.9432288862e-01 0.0
2.5312500000e+00 2.9432288862e-01 0.0
2.8125000000e+00 2.9432288862e-01 0.0
3.0937500000e+00 2.9432288862e-01 0.0
3.3750000000e+00 2.9432288862e-01 0.0
3.6562500000e+00 2.9432288862e-01 0.0
3.9375000000e+00 2.9432288862e-01 0.0
4.2187500000e+00 2.9432288862e-01 0.0
4.5000000000e+00 2.9432288862e-01 0.0
4.7812500000e+00 2.9432288862e-01 0.0
5.0625000000e+00 2.9432288862e-01 0.0
5.3437500000e+00 2.9432288862e-01 0.0
5.6250000000e+00 2.9432288862e-01 0.0
5.9062500000e+00 2.9432288862e-01 0.0
6.1875000000e+00 2.9432288862e-01 0.0
6.4687500000e+00 2.9432288862e-01 0.0
6.7500000000e+00 2.9432288862e-01 0.0
7.0312500000e+00 2.9432288862e-01 0.0
7.3125000000e+00 3.2494586098e-01 0.0
7.5937500000e+00 4.3660603476e-01 0.0
7.8750000000e+00 6.1557859980e-01 0.0
8.1562500000e+00 8.1637999156e-01 0.0
8.4375000000e+00 1.0320449316e+00 0.0
8.7187500000e+00 1.1876345004e+00 0.0
9.0000000000e+00 1.2077762062e+00 0.0
0.0000000000e+00 1.3193302628e+00 0.0
2.8125000000e-01 1.3004437680e+00 0.0
5.6250000000e-01 1.1545503861e+00 0.0
8.4375000000e-01 9.5232547010e-01 0.0
1.1250000000e+00 7.6403782092e-01 0.0
1.4062500000e+00 5.9621864774e-01 0.0
1.6875000000e+00 4.9151702468e-01 0.0
1.9687500000e+00 4.6280244544e-01 0.0
2.2500000000e+00 4.6280244544e-01 0.0
2.5312500000e+00 4.6280244544e-01 0.0
2.8125000000e+00 4.6280244544e-01 0.0
3.0937500000e+00 4.6280244544e-01 0.0
3.3750000000e+00 4.6280244544e-01 0.0
3.6562500000e+00 4.6280244544e-01 0.0
3.9375000000e+00 4.6280244544e-01 0.0
4.2187500000e+00 4.6280244544e-01 0.0
4.5000000000e+00 4.6280244544e-01 0.0
4.7812500000e+00 4.6280244544e-01 0.0
5.0625000000e+00 4.6280244544e-01 0.0
5.3437500000e+00 4.6280244544e-01 0.0
5.6250000000e+00 4.6280244544e-01 0.0
5.9062500000e+00 4.6280244544e-01 0.0
6.1875000000e+00 4.6280244544e-01 0.0
6.4687500000e+00 4.6280244544e-01 0.0
6.7500000000e+00 4.6280244544e-01 0.0
7.0312500000e+00 4.6280244544e-01 0.0
7.3125000000e+00 4.9151702468e-01 0.0
7.5937500000e+00 5.9621864774e-01 0.0
7.8750000000e+00 7.6403782092e-01 0.0
8.1562500000e+00 9.5232547010e-01 0.0
8.4375000000e+00 1.1545503861e+00 0.0
8.7187500000e+00 1.3004437680e+00 0.0
9.0000000000e+00 1.3193302628e+00 0.0
0.0000000000e+00 1.4495132424e+00 0.0
2.8125000000e-01 1.4320915722e+00 0.0
5.6250000000e-01 1.2975135877e+00 0.0
8.4375000000e-01 1.1109731070e+00 0.0
1.1250000000e+00 9.3728892765e-01 0.0
1.4062500000e+00 7.8248570235e-01 0.0
1.6875000000e+00 6.8590467030e-01 0.0
1.9687500000e+00 6.5941717548e-01 0.0
2.2500000000e+00 6.5941717548e-01 0.0
2.5312500000e+00 6.5941717548e-01 0.0
2.8125000000e+00 6.5941717548e-01 0.0
3.0937500000e+00 6.5941717548e-01 0.0
3.3750000000e+00 6.5941717548e-01 0.0
3.6562500000e+00 6.5941717548e-01 0.0
3.9375000000e+00 6.5941717548e-01 0.0
4.2187500000e+00 6.5941717548e-01 0.0
4.5000000000e+00 6.5941717548e-01 0.0
4.7812500000e+00 6.5941717548e-01 0.0
5.0625000000e+00 6.5941717548e-01 0.0
5.3437500000e+00 6.5941717548e-01 0.0
5.6250000000e+00 6.5941717548e-01 0.0
5.9062500000e+00 6.5941717548e-01 0.0
6.1875000000e+00 6.5941717548e-01 0.0
6.4687500000e+00 6.5941717548e-01 0.0
6.7500000000e+00 6.5941717548e-01 0.0
7.0312500000e+00 6.5941717548e-01 0.0
7.3125000000e+00 6.8590467030e-01 0.0
7.5937500000e+00 7.8248570235e-01 0.0
7.8750000000e+00 9.3728892765e-01 0.0
8.1562500000e+00 1.1109731070e+00 0.0
8.4375000000e+00 1.2975135877e+00 0.0
8.7187500000e+00 1.4320915722e+00 0.0
9.0000000000e+00 1.4495132424e+00 0.0
0.0000000000e+00 1.5971143014e+00 0.0
2.8125000000e-01 1.5813534446e+00 0.0
5.6250000000e-01 1.4596048228e+00 0.0
8.4375000000e-01 1.2908473063e+00 0.0
1.1250000000e+00 1.1337204957e+00 0.0
1.4062500000e+00 9.9367471176e-01 0.0
1.6875000000e+00 9.0630078063e-01 0.0
1.9687500000e+00 8.8233834724e-01 0.0
2.2500000000e+00 8.8233834724e-01 0.0
2.5312500000e+00 8.8233834724e-01 0.0
2.8125000000e+00 8.8233834724e-01 0.0
3.0937500000e+00 8.8233834724e-01 0.0
3.3750000000e+00 8.8233834724e-01 0.0
3.6562500000e+00 8.8233834724e-01 0.0
3.9375000000e+00 8.8233834724e-01 0.0
4.2187500000e+00 8.8233834724e-01 0.0
4.5000000000e+00 8.8233834724e-01 0.0
4.7812500000e+00 8.8233834724e-01 0.0
5.0625000000e+00 8.8233834724e-01 0.0
5.3437500000e+00 8.8233834724e-01 0.0
5.6250000000e+00 8.8233834724e-01 0.0
5.9062500000e+00 8.8233834724e-01 0.0
6.1875000000e+00 8.8233834724e-01 0.0
6.4687500000e+00 8.8233834724e-01 0.0
6.7500000000e+00 8.8233834724e-01 0.0
7.0312500000e+00 8.8233834724e-01 0.0
7.3125000000e+00 9.0630078063e-01 0.0
7.5937500000e+00 9.9367471176e-01 0.0
7.8750000000e+00 1.1337204957e+00 0.0
8.1562500000e+00 1.2908473063e+00 0.0
8.4375000000e+00 1.4596048228e+00 0.0
8.7187500000e+00 1.5813534446e+00 0.0
9.0000000000e+00 1.5971143014e+00 0.0
0.0000000000e+00 1.7590868131e+00 0.0
2.8125000000e-01 1.7451484779e+00 0.0
5.6250000000e-01 1.6374783736e+00 0.0
8.4375000000e-01 1.4882352927e+00 0.0
1.1250000000e+00 1.3492779901e+00 0.0
1.4062500000e+00 1.2254265334e+00 0.0
1.6875000000e+00 1.1481561697e+00 0.0
1.9687500000e+00 1.1269646551e+00 0.0
2.2500000000e+00 1.1269646551e+00 0.0
2.5312500000e+00 1.1269646551e+00 0.0
2.8125000000e+00 1.1269646551e+00 0.0
3.0937500000e+00 1.1269646551e+00 0.0
3.3750000000e+00 1.1269646551e+00 0.0
3.6562500000e+00 1.1269646551e+00 0.0
3.9375000000e+00 1.1269646551e+00 0.0
4.2187500000e+00 1.1269646551e+00 0.0
4.5000000000e+00 1.1269646551e+00 0.0
4.7812500000e+00 1.1269646551e+00 0.0
5.0625000000e+00 1.1269646551e+00 0.0
5.3437500000e+00 1.1269646551e+00 0.0
5.6250000000e+00 1.1269646551e+00 0.0
5.9062500000e+00 1.1269646551e+00 0.0
6.1875000000e+00 1.1269646551e+00 0.0
6.4687500000e+00 1.1269646551e+00 0.0
6.7500000000e+00 1.1269646551e+00 0.0
7.0312500000e+00 1.1269646551e+00 0.0
7.3125000000e+00 1.1481561697e+00 0.0
7.5937500000e+00 1.2254265334e+00 0.0
7.8750000000e+00 1.3492779901e+00 0.0
8.1562500000e+00 1.4882352927e+00 0.0
8.4375000000e+00 1.6374783736e+00 0.0
8.7187500000e+00 1.7451484779e+00 0.0
9.0000000000e+00 1.7590868131e+00 0.0
0.0000000000e+00 1.9305824874e+00 0.0
2.8125000000e-01 1.9185738289e+00 0.0
5.6250000000e-01 1.8258099875e+00 0.0
8.4375000000e-01 1.6972286922e+00 0.0
1.1250000000e+00 1.5775091725e+00 0.0
1.4062500000e+00 1.4708041873e+00 0.0
1.6875000000e+00 1.4042314297e+00 0.0
1.9687500000e+00 1.3859737498e+00 0.0
2.2500000000e+00 1.3859737498e+00 0.0
2.5312500000e+00 1.3859737498e+00 0.0
2.8125000000e+00 1.3859737498e+00 0.0
3.0937500000e+00 1.3859737498e+00 0.0
3.3750000000e+00 1.3859737498e+00 0.0
3.6562500000e+00 1.3859737498e+00 0.0
3.9375000000e+00 1.3859737498e+00 0.0
4.2187500000e+00 1.3859737498e+00 0.0
4.5000000000e+00 1.3859737498e+00 0.0
4.7812500000e+00 1.3859737498e+00 0.0
5.0625000000e+00 1.3859737498e+00 0.0
5.3437500000e+00 1.3859737498e+00 0.0
5.6250000000e+00 1.3859737498e+00 0.0
5.9062500000e+00 1.3859737498e+00 0.0
6.1875000000e+00 1.3859737498e+00 0.0
6.4687500000e+00 1.3859737498e+00 0.0
6.7500000000e+00 1.3859737498e+00 0.0
7.0312500000e+00 1.3859737498e+00 0.0
7.3125000000e+00 1.4042314297e+00 0.0
7.5937500000e+00 1.4708041873e+00 0.0
[...]
POINT_DATA 528

SCALARS Density double 1
LOOKUP_TABLE default
5.3731254388e-01
5.4389638493e-01
5.4256098451e-01
5.3830432142e-01
5.2386699902e-01
5.0679509162e-01
5.5113420727e-01
5.5454556426e-01
5.6485371501e-01
5.4465834001e-01
5.0714182632e-01
5.0474842483e-01
5.2899728629e-01
6.0321181395e-01
5.8847566448e-01
5.5708923796e-01
4.8145960361e-01
4.7545647132e-01
4.3325504849e-01
4.1864975794e-01
4.1677388176e-01
4.2147144801e-01
4.3936512929e-01
4.4453437426e-01
4.6798488181e-01
4.7204536082e-01
4.7722459552e-01
4.4470900218e-01
3.9694214983e-01
3.8580139351e-01
3.8520324120e-01
4.1434263698e-01
4.0591293843e-01
5.1362145817e-01
5.2835911407e-01
5.5089426608e-01
5.5797472044e-01
5.3777734760e-01
5.4562160292e-01
5.6529853932e-01
5.8899496860e-01
5.6218137838e-01
5.1061988694e-01
4.8689950426e-01
4.7278725543e-01
6.0386128472e-01
6.0834716739e-01
6.1733224442e-01
5.1233075682e-01
4.7065268612e-01
4.5685795018e-01
4.2784632854e-01
4.0209721303e-01
3.8227627511e-01
3.7980171315e-01
3.9927988119e-01
4.4068418052e-01
4.5504758673e-01
4.6873888113e-01
4.5392623790e-01
4.3864467477e-01
4.2074032132e-01
3.8847290153e-01
3.8534152084e-01
3.9103427660e-01
3.8650279279e-01
5.3887331624e-01
5.7501797372e-01
5.7363631434e-01
5.6362374107e-01
5.5905044140e-01
5.7426053587e-01
5.9979277217e-01
5.7576197480e-01
5.2239828583e-01
4.8289688236e-01
4.8949744655e-01
5.9525203382e-01
6.1949113937e-01
6.1116876892e-01
5.1471713254e-01
4.8184882092e-01
4.5862741406e-01
4.2581905757e-01
4.0201259878e-01
3.7296809720e-01
3.7175698278e-01
3.9342563143e-01
4.3039468774e-01
4.5385987270e-01
4.6370951201e-01
4.5616848321e-01
4.5263277324e-01
4.3585557498e-01
4.0916886771e-01
3.8922031745e-01
3.7881803022e-01
3.7669961364e-01
3.9710219761e-01
5.6269674658e-01
5.7993835027e-01
5.7587010711e-01
5.6654762369e-01
5.7709761482e-01
5.9969891285e-01
5.7544827705e-01
5.1794638544e-01
4.7849815853e-01
4.8189303006e-01
6.0104640180e-01
6.1239339589e-01
6.1756453647e-01
5.0742277184e-01
4.8491754347e-01
4.6330137578e-01
4.1707166176e-01
4.0259521669e-01
3.6722986158e-01
3.7011619520e-01
3.9562333953e-01
4.2978031668e-01
4.5545599279e-01
4.6403502425e-01
4.5813193237e-01
4.5689082866e-01
4.4227314726e-01
4.0822981211e-01
3.8741387145e-01
3.7380650725e-01
3.7346373375e-01
3.9650302860e-01
4.4927330970e-01
5.8390589075e-01
5.7464483358e-01
5.6269303039e-01
5.7779191674e-01
5.9812206872e-01
5.7434674280e-01
5.1400588386e-01
4.7654968934e-01
4.7865774105e-01
6.0842727954e-01
6.1300830481e-01
6.2640779322e-01
4.9931937335e-01
4.8487531753e-01
4.6277726925e-01
4.1351718600e-01
4.0076024801e-01
3.6316166274e-01
3.6954433904e-01
3.9886602393e-01
4.3262797734e-01
4.5696584120e-01
4.6601527058e-01
4.5946896267e-01
4.5935919695e-01
4.4378295655e-01
4.0801747193e-01
3.7961579146e-01
3.7075680468e-01
3.7293409606e-01
3.9942239288e-01
4.6052114661e-01
4.6738781536e-01
5.7671962549e-01
5.5891880287e-01
5.7920398837e-01
5.9832392021e-01
5.7344468415e-01
5.1133446823e-01
4.7582218252e-01
4.7680552336e-01
6.1155750535e-01
6.1540462155e-01
6.2708058937e-01
4.9668323505e-01
4.8189533147e-01
4.6498602771e-01
4.1246449472e-01
3.9752263091e-01
3.6192617318e-01
3.6951687023e-01
4.0048783846e-01
4.3422800885e-01
4.5667940417e-01
4.6641805059e-01
4.6009772138e-01
4.6064162109e-01
4.4262398841e-01
4.0617020685e-01
3.7451584403e-01
3.6930554497e-01
3.7372403903e-01
3.9544619659e-01
4.6316798855e-01
4.7007607920e-01
4.8101643534e-01
5.5711878278e-01
5.7862366031e-01
5.9862845284e-01
5.7333279455e-01
5.1024976888e-01
4.7586134275e-01
4.7395295516e-01
6.1343191527e-01
6.1675247147e-01
6.2703739775e-01
4.9532553959e-01
4.7958061057e-01
4.6650064905e-01
4.1188402544e-01
3.9482571948e-01
3.6168761307e-01
3.6910285504e-01
4.0152517086e-01
4.3559888541e-01
4.5640587614e-01
4.6713761802e-01
4.6045755488e-01
4.6177012222e-01
4.4173099430e-01
4.0435490606e-01
3.7200857310e-01
3.6809095337e-01
3.7461911815e-01
3.9304134476e-01
4.6682213696e-01
4.7266406788e-01
4.8090781320e-01
4.9907515836e-01
5.7778845653e-01
5.9914407305e-01
5.7293055936e-01
5.1065227401e-01
4.7681085710e-01
4.7285221915e-01
6.1428355081e-01
6.1715176977e-01
6.2715393053e-01
4.9472907317e-01
4.7809633062e-01
4.6734942734e-01
4.1197230876e-01
3.9296001909e-01
3.6189516234e-01
3.6884360497e-01
4.0199921071e-01
4.3654732995e-01
4.5605631600e-01
4.6766509349e-01
4.6030166254e-01
4.6260083134e-01
4.4119445264e-01
4.0335581317e-01
3.7161185556e-01
3.6735221687e-01
3.7549230270e-01
3.9040640843e-01
4.6882845654e-01
4.7397722990e-01
4.8050310079e-01
5.0155649990e-01
4.9440502803e-01
5.9926379032e-01
5.7328641011e-01
5.1129486146e-01
4.7925791957e-01
4.7270746700e-01
6.1455003597e-01
6.1596873045e-01
6.2742539841e-01
4.9484835637e-01
4.7697363454e-01
4.6756542695e-01
4.1252537006e-01
3.9193770707e-01
3.6246536148e-01
3.6869726410e-01
4.0185519241e-01
4.3721224025e-01
4.5568574563e-01
4.6802999634e-01
4.5968911936e-01
4.6311519427e-01
4.4104542216e-01
4.0304473351e-01
3.7168611859e-01
3.6696824749e-01
3.7610248329e-01
3.8841277340e-01
4.6922495853e-01
4.7508218992e-01
4.7896563893e-01
5.0365123122e-01
4.9333741676e-01
4.9227633253e-01
5.7428647385e-01
5.1453147581e-01
4.8348657042e-01
4.7234165193e-01
6.1407228515e-01
6.1347877383e-01
6.2994483127e-01
4.9593838694e-01
4.7601180676e-01
4.6723357086e-01
4.1357706052e-01
3.9172206996e-01
3.6336488761e-01
3.6863250111e-01
4.0113508380e-01
4.3762079315e-01
4.5526682261e-01
4.6825953251e-01
4.5861585662e-01
4.6333096998e-01
4.4131890373e-01
4.0339871257e-01
3.7217194669e-01
3.6643718622e-01
3.7658787176e-01
3.8758794001e-01
4.6858748213e-01
4.7610468557e-01
4.7758360244e-01
5.0468001298e-01
4.9264317092e-01
4.9062481522e-01
4.2094900547e-01
5.1758786013e-01
4.8810753757e-01
4.7386375650e-01
6.1185703210e-01
6.0998613418e-01
6.3120813059e-01
5.0110692010e-01
4.7497127292e-01
4.6636603812e-01
4.1522468973e-01
3.9225732585e-01
3.6467947748e-01
3.6865288620e-01
3.9991948274e-01
4.3771589967e-01
4.5486368861e-01
4.6832159992e-01
4.5704356936e-01
4.6325812328e-01
4.4199860063e-01
4.0437777900e-01
3.7315899699e-01
3.6569110485e-01
3.7718079100e-01
3.8755819013e-01
4.6726111157e-01
4.7704475301e-01
4.7613916673e-01
5.0598144201e-01
4.9078522176e-01
4.9052696345e-01
4.2056996624e-01
4.1225208350e-01
4.9397278650e-01
4.7933267321e-01
6.0602167521e-01
6.0667877298e-01
6.2940150490e-01
5.0720084004e-01
4.7366437726e-01
4.6497745061e-01
4.1728972919e-01
3.9351170005e-01
3.6649748809e-01
3.6859976801e-01
3.9825317436e-01
4.3730485561e-01
4.5474898069e-01
4.6757292703e-01
4.5507990656e-01
4.6261240203e-01
4.4289602197e-01
4.0598908306e-01
3.7455165752e-01
3.6475849428e-01
3.7781341113e-01
3.8741316844e-01
4.6546361690e-01
4.7761257735e-01
4.7572474847e-01
5.0589561512e-01
4.8878580954e-01
4.9213896930e-01
4.2020403123e-01
4.1258510709e-01
3.9107429339e-01
4.8781948978e-01
5.8920896311e-01
6.0687344821e-01
6.2101621761e-01
5.1247322417e-01
4.7586570567e-01
4.6193207632e-01
4.2062459509e-01
3.9584584223e-01
3.6825642741e-01
3.6892238032e-01
3.9640363400e-01
4.3609623847e-01
4.5457456767e-01
4.6510339256e-01
4.5407352731e-01
4.6053392810e-01
4.4518000544e-01
4.0810823039e-01
3.7577106932e-01
3.6606671258e-01
3.7594513991e-01
3.8949998835e-01
4.6265255319e-01
4.7716985854e-01
4.7727443079e-01
5.0052062381e-01
4.9290474985e-01
4.8620769439e-01
4.2652813042e-01
4.1055822965e-01
3.9388981608e-01
3.9123342832e-01
5.8061822684e-01
6.2447030095e-01
6.0622263374e-01
5.2294221407e-01
4.8033231596e-01
4.5656796771e-01
4.2378406139e-01
3.9743500250e-01
3.6766089925e-01
3.6950969781e-01
3.9420579248e-01
4.3217372154e-01
4.5514988502e-01
4.6173037408e-01
4.5694261108e-01
4.5716636166e-01
4.4749924125e-01
4.0913971081e-01
3.7699781766e-01
3.6592770313e-01
3.7137011543e-01
3.9369612090e-01
4.5731318122e-01
4.7571813853e-01
4.7975835393e-01
4.9623590230e-01
4.9877091080e-01
4.7946683233e-01
4.3602104285e-01
4.0588606059e-01
3.9372218530e-01
3.9257509844e-01
4.2534724081e-01
6.3833072019e-01
6.0924755984e-01
5.3123432842e-01
4.9401447671e-01
4.5521569470e-01
4.1966202337e-01
3.9955199493e-01
3.5270884040e-01
3.6062786766e-01
3.8441337385e-01
4.2109102642e-01
4.5303261558e-01
4.5869914573e-01
4.5828706727e-01
4.5465935231e-01
4.4720495578e-01
4.0623292711e-01
3.6878447398e-01
3.5898780495e-01
3.6036275782e-01
3.8528622471e-01
4.5677995118e-01
4.6663894757e-01
4.8178403505e-01
4.9459194040e-01
5.0141919704e-01
4.8621810261e-01
4.2859166879e-01
4.0875689714e-01
3.8020134256e-01
3.8481541555e-01
4.1658113846e-01
4.5259752987e-01
6.3582129335e-01
5.5874638000e-01
5.1331243699e-01
4.7266133162e-01
4.5099995064e-01
3.9539018744e-01
3.3501647652e-01
3.2579924414e-01
3.4707594237e-01
4.0184946251e-01
4.3589992027e-01
4.4594477774e-01
4.6086804776e-01
4.6575215785e-01
4.7465159314e-01
4.1895994117e-01
3.5783624283e-01
3.3198608515e-01
3.3602452936e-01
3.5634599161e-01
4.2268568976e-01
4.6355673016e-01
4.7323032723e-01
4.8406963067e-01
5.0275683594e-01
5.0478137421e-01
4.6003914083e-01
3.9708688884e-01
3.6604389892e-01
3.6520689267e-01
3.9613686979e-01
4.3756566976e-01
4.5965445907e-01

VECTORS Velocity double
-4.2430042775e-02 9.0349222962e-02 0.0
-5.0339118139e-02 1.1396890385e-01 0.0
-2.6497940137e-02 8.3054745510e-03 0.0
2.7662721207e-03 -3.6219342793e-02 0.0
-1.6205213853e-02 8.8187743126e-03 0.0
-1.9134769921e-04 -2.9613589359e-02 0.0
-6.1402813344e-02 8.5827054895e-02 0.0
3.2401317660e-03 1.1192962500e-02 0.0
-2.5568640135e-02 7.1232952290e-02 0.0
-3.3242802594e-02 5.0293391176e-02 0.0
-3.3297420039e-02 6.8307465382e-02 0.0
-5.8265497311e-02 7.3711490552e-02 0.0
-5.7193045895e-02 1.2071063323e-01 0.0
1.4275170273e-01 -3.5007998631e-02 0.0
1.4232548671e-01 3.1113058184e-03 0.0
1.5034430540e-01 -2.1433788949e-02 0.0
-3.2140176611e-02 -3.6355185937e-03 0.0
-3.2281268193e-02 -2.9796360970e-03 0.0
-3.6287124107e-02 3.2237641422e-03 0.0
-6.3622803309e-02 -1.3823517724e-02 0.0
-4.3223189480e-02 3.8391567461e-02 0.0
-3.5972950440e-02 1.5587511401e-02 0.0
-2.9076699983e-02 -6.2498685428e-03 0.0
4.6079361356e-03 1.5806649235e-02 0.0
6.7831272927e-03 2.0491765697e-02 0.0
8.6492381093e-03 5.1067499714e-03 0.0
1.4124117466e-03 1.6944599888e-02 0.0
1.3704701828e-02 7.4271446285e-04 0.0
2.6136905171e-02 -7.8041392381e-03 0.0
1.3846390153e-01 1.3291772702e-01 0.0
1.6061737720e-01 1.7276783653e-01 0.0
-5.1457122081e-02 -6.6937562961e-02 0.0
-1.6150119513e-02 9.6003360570e-02 0.0
-1.2622604554e-03 -8.1454979044e-02 0.0
1.7173906830e-02 -7.9353953970e-02 0.0
2.7641483431e-02 -2.2279422573e-02 0.0
2.7184230688e-02 -5.0373371212e-04 0.0
-3.0595934393e-02 -3.7099856369e-02 0.0
-2.4317677458e-04 8.4705604060e-04 0.0
-3.9261608810e-03 1.3053005335e-02 0.0
7.5979803202e-03 5.8405428088e-02 0.0
-1.2162846131e-02 3.4728238615e-02 0.0
-1.0197309196e-02 1.1067632460e-02 0.0
-2.4379978051e-02 -9.0615957656e-03 0.0
-3.7522081711e-02 -8.8240437902e-02 0.0
1.3160398842e-01 9.4747232834e-03 0.0
1.4004226038e-01 4.1102569377e-02 0.0
1.5570412327e-01 8.8005824567e-02 0.0
-1.2797068495e-02 5.4899116234e-02 0.0
-3.4611433636e-02 -1.6568205271e-02 0.0
-3.0670841692e-02 3.5701677982e-02 0.0
-7.5091322952e-02 2.7811788472e-02 0.0
-6.6999345420e-02 -2.3356754028e-02 0.0
-6.3889498792e-02 -8.8365827615e-02 0.0
-4.5946454102e-02 -1.2647961011e-01 0.0
-5.5818162630e-03 -8.4890067586e-02 0.0
-4.5682534307e-03 -3.8782312634e-02 0.0
-6.3701039379e-03 -3.9189256365e-02 0.0
1.5023978663e-03 -1.9330666983e-03 0.0
2.4193153335e-03 1.4736127386e-04 0.0
1.5619674976e-02 7.9983640112e-03 0.0
-1.3392491173e-02 4.7926854277e-02 0.0
-3.8496482648e-02 -6.6034019107e-02 0.0
-4.6649111686e-02 -1.1132972673e-01 0.0
-3.2899272734e-02 -2.5381617030e-02 0.0
-5.1245454785e-02 -9.1484853285e-02 0.0
2.3195100809e-02 -3.2984130780e-02 0.0
1.5432019827e-02 1.0424533409e-03 0.0
9.0461122565e-03 1.3408796338e-02 0.0
-7.7436355664e-03 1.5895936654e-02 0.0
-6.7433587273e-03 2.6180540236e-02 0.0
-6.7800537338e-03 3.6427657262e-02 0.0
7.9143557493e-03 6.6173548423e-02 0.0
-1.0122669041e-02 5.4709695447e-02 0.0
-1.0987964686e-02 2.8483837480e-02 0.0
-2.7643821024e-02 -5.8864187793e-03 0.0
-2.9278428675e-02 -4.6083301651e-02 0.0
1.3203475365e-01 -2.4555641726e-03 0.0
1.4405210739e-01 4.9004928072e-02 0.0
1.5101537958e-01 7.0766564171e-02 0.0
-1.2319344283e-02 6.2382591040e-02 0.0
-3.5003401843e-02 -3.6270087507e-03 0.0
-3.3047847275e-02 2.2948958165e-02 0.0
-6.8303693827e-02 4.0832069236e-02 0.0
-7.2047330164e-02 -3.1446071326e-02 0.0
-6.1817203000e-02 -9.4421720951e-02 0.0
-5.1112324898e-02 -1.3885623689e-01 0.0
-4.3434058471e-03 -1.0083780432e-01 0.0
-4.8563765939e-03 -5.2099167732e-02 0.0
-5.8103630896e-03 -3.8384416738e-02 0.0
4.3059223289e-04 -1.7694810010e-02 0.0
4.8246771598e-03 -2.0837066513e-03 0.0
2.3938217841e-02 2.8010619186e-02 0.0
-1.3243017206e-02 5.7074472587e-02 0.0
-4.6656916687e-02 -7.8302140962e-03 0.0
-4.9616244542e-02 -7.9263428421e-02 0.0
-3.8493744544e-02 -7.7109998289e-02 0.0
-5.4753088647e-02 -7.9711610059e-02 0.0
-2.9401028349e-02 -9.7476093979e-02 0.0
2.0935952480e-02 -4.2484626788e-03 0.0
1.0458217169e-02 2.2340965151e-02 0.0
-6.2225721448e-03 2.6328325851e-02 0.0
-8.5051142919e-03 3.0540622037e-02 0.0
-7.8636834345e-03 3.7181755233e-02 0.0
1.2566036895e-02 6.0372586762e-02 0.0
-7.3617120146e-03 5.5451972648e-02 0.0
-1.3250135210e-02 1.9479409946e-02 0.0
-2.6265313518e-02 -1.2598067750e-02 0.0
-2.9139590539e-02 -3.9314108627e-02 0.0
1.3240739547e-01 -6.1624615152e-03 0.0
1.4870154940e-01 6.1886882787e-02 0.0
1.4625284761e-01 6.4022314209e-02 0.0
-1.2240311303e-02 6.2734450769e-02 0.0
-3.7570861528e-02 -1.2060291599e-02 0.0
-3.2682902109e-02 1.5508011549e-02 0.0
-6.4985236402e-02 5.0173089076e-02 0.0
-7.6397108853e-02 -4.7726468240e-02 0.0
-5.7905134807e-02 -9.4001105437e-02 0.0
-5.6287268351e-02 -1.4118288074e-01 0.0
-2.1614769781e-03 -9.6967064624e-02 0.0
-5.6204619896e-03 -4.0866243902e-02 0.0
-5.8070875830e-03 -3.5303804376e-02 0.0
2.8701157442e-04 -2.0700122684e-02 0.0
5.3398328187e-03 1.2991789479e-03 0.0
2.6981494920e-02 2.8204436265e-02 0.0
-6.9808953558e-03 5.3056256095e-02 0.0
-3.8277804337e-02 -3.3523470569e-03 0.0
-4.9119538128e-02 -8.1075594873e-02 0.0
-3.9439567640e-02 -8.7506918008e-02 0.0
-4.8877933037e-02 -7.6200947952e-02 0.0
-2.3028179025e-02 -9.3835959937e-02 0.0
-2.8148340165e-02 -6.2015952108e-02 0.0
1.1126339772e-02 1.4816322590e-02 0.0
-5.8544214828e-03 2.7570878264e-02 0.0
-9.6418660022e-03 3.2913836857e-02 0.0
-7.0175384095e-03 4.1131216100e-02 0.0
1.3086768001e-02 6.2789491891e-02 0.0
-6.1527016524e-03 4.9813219781e-02 0.0
-1.0015416407e-02 1.6030196173e-02 0.0
-2.6495678949e-02 -1.7078064557e-02 0.0
-2.9011989454e-02 -3.7681473697e-02 0.0
1.3371987775e-01 2.7034484712e-03 0.0
1.4789718035e-01 5.7813251395e-02 0.0
1.4462835889e-01 6.5669995841e-02 0.0
-1.5891520702e-02 5.0529493791e-02 0.0
-3.6715694849e-02 -1.0142109474e-02 0.0
-3.2924844589e-02 1.0729084887e-02 0.0
-6.4497514470e-02 4.7562403959e-02 0.0
-7.5802968291e-02 -4.8887838714e-02 0.0
-5.9743254722e-02 -1.0026849167e-01 0.0
-5.6505090385e-02 -1.3873204719e-01 0.0
-2.7682180317e-03 -9.5337092196e-02 0.0
-5.1014039165e-03 -3.8444271260e-02 0.0
-5.9199879572e-03 -3.5122555500e-02 0.0
3.2237868436e-04 -2.0686548057e-02 0.0
5.1098973174e-03 -1.5194619773e-03 0.0
2.7705232193e-02 3.3477577196e-02 0.0
-4.5672696209e-05 4.7504984192e-02 0.0
-3.8881658440e-02 -5.5338003801e-03 0.0
-4.4994191195e-02 -8.6097658909e-02 0.0
-4.0658482835e-02 -9.6112698405e-02 0.0
-5.1465356398e-02 -7.8517789570e-02 0.0
-1.8071984264e-02 -8.5336993391e-02 0.0
-2.2060411371e-02 -5.4535872838e-02 0.0
-3.5190952812e-02 -1.6118858148e-02 0.0
-4.4542762352e-03 2.9648045339e-02 0.0
-1.4511305411e-02 3.2099732106e-02 0.0
-5.6823410781e-03 4.2829005661e-02 0.0
1.2251665371e-02 6.4356500431e-02 0.0
-5.6041055583e-03 4.8133869531e-02 0.0
-7.6647893871e-03 1.5204388066e-02 0.0
-2.5497066428e-02 -1.9427523663e-02 0.0
-2.9109716803e-02 -3.5398322827e-02 0.0
1.3509149061e-01 9.3824060103e-03 0.0
1.4668252940e-01 5.6197175178e-02 0.0
1.4488422066e-01 6.7109100892e-02 0.0
-1.8532535332e-02 4.3956761071e-02 0.0
-3.6166233024e-02 -1.3518137767e-02 0.0
-3.2915581778e-02 9.3851698557e-03 0.0
-6.4090109611e-02 4.4177030126e-02 0.0
-7.5513542295e-02 -5.1923125095e-02 0.0
-6.1007236519e-02 -1.0356231338e-01 0.0
-5.6421730142e-02 -1.3678548013e-01 0.0
-3.3094585119e-03 -9.3056630827e-02 0.0
-4.7215895134e-03 -3.5701093488e-02 0.0
-6.0014496754e-03 -3.3829779399e-02 0.0
3.5104896731e-04 -2.0195653773e-02 0.0
4.9233125936e-03 -2.7384330633e-03 0.0
2.8216404299e-02 3.7043503239e-02 0.0
5.9531295402e-04 4.5490634335e-02 0.0
-3.9257888690e-02 -1.0531361398e-02 0.0
-4.1778508412e-02 -8.7576118586e-02 0.0
-4.2100509748e-02 -1.0072967430e-01 0.0
-5.2831373149e-02 -7.6145967146e-02 0.0
-2.1611640388e-02 -7.3076438646e-02 0.0
-1.5061745548e-02 -4.8038860774e-02 0.0
-3.6604567044e-02 -1.1278130175e-02 0.0
-3.3401038286e-02 -1.7354469867e-02 0.0
-1.6535732739e-02 3.0180578865e-02 0.0
-1.5595748421e-03 4.5548300535e-02 0.0
1.1066812774e-02 6.5314030745e-02 0.0
-5.5523811628e-03 4.7966188913e-02 0.0
-7.0489911528e-03 1.5002017687e-02 0.0
-2.4732372927e-02 -2.0369950271e-02 0.0
-3.7269234665e-02 -3.6295704942e-02 0.0
1.3585349129e-01 1.4152214696e-02 0.0
1.4577716433e-01 5.4292598549e-02 0.0
1.4531401171e-01 6.8384635190e-02 0.0
-2.0406507542e-02 3.8267669100e-02 0.0
-3.5709361704e-02 -1.5282870063e-02 0.0
-3.2875327206e-02 9.9256611492e-03 0.0
-6.4004782177e-02 4.1111485451e-02 0.0
-7.5198934141e-02 -5.3629610310e-02 0.0
-6.1949969973e-02 -1.0522984475e-01 0.0
-5.6251554011e-02 -1.3578604908e-01 0.0
-3.7513215737e-03 -9.1301174718e-02 0.0
-4.4555638874e-03 -3.4237895402e-02 0.0
-6.0512906799e-03 -3.3186443749e-02 0.0
3.9240881555e-04 -1.9600348481e-02 0.0
4.7701335885e-03 -3.6990519045e-03 0.0
2.8502040740e-02 3.9339227189e-02 0.0
1.0570065189e-03 4.4177337772e-02 0.0
-4.0138171282e-02 -1.5292396287e-02 0.0
-4.0138748025e-02 -8.8256374203e-02 0.0
-4.3646199816e-02 -1.0305281651e-01 0.0
-5.3437384050e-02 -7.5159482844e-02 0.0
-2.3681126697e-02 -6.5974715640e-02 0.0
-1.9941207021e-02 -4.3542549748e-02 0.0
-3.7722072775e-02 -1.0048426377e-02 0.0
-3.1391980412e-02 -1.8138729638e-02 0.0
4.5939599668e-04 -1.2975645450e-02 0.0
-4.4765522935e-04 4.7161993308e-02 0.0
6.8245008910e-03 6.7719929555e-02 0.0
-5.5672757226e-03 4.9504392032e-02 0.0
-7.2338472056e-03 1.6641943957e-02 0.0
-2.4350632192e-02 -2.0198625421e-02 0.0
-4.3855234981e-02 -3.9107354891e-02 0.0
1.3042208118e-01 1.5984261779e-02 0.0
1.4515237318e-01 5.2383363641e-02 0.0
1.4575442640e-01 7.0087509016e-02 0.0
-2.1652094883e-02 3.4305123575e-02 0.0
-3.5342049946e-02 -1.6056975541e-02 0.0
-3.2792651137e-02 1.1119598155e-02 0.0
-6.4178108411e-02 3.8379724394e-02 0.0
-7.4796796915e-02 -5.4135702960e-02 0.0
-6.2679281263e-02 -1.0627921436e-01 0.0
-5.5930066273e-02 -1.3544008090e-01 0.0
-4.0937410580e-03 -9.0038954713e-02 0.0
-4.2896317901e-03 -3.3627662339e-02 0.0
-6.0857915617e-03 -3.2995810799e-02 0.0
4.5927910021e-04 -1.8908729605e-02 0.0
4.6469666166e-03 -4.6650581745e-03 0.0
2.8584255885e-02 4.0705906492e-02 0.0
1.4163829823e-03 4.3628117154e-02 0.0
-4.0727335902e-02 -1.8156467478e-02 0.0
-4.0052796426e-02 -8.8666762462e-02 0.0
-4.4648583934e-02 -1.0337998600e-01 0.0
-5.3419249251e-02 -7.4313387273e-02 0.0
-2.6423791637e-02 -6.2098735295e-02 0.0
-2.4030818936e-02 -3.9263321243e-02 0.0
-3.6333572715e-02 -9.5236813627e-03 0.0
-2.9497502081e-02 -1.8110879503e-02 0.0
2.8650997404e-03 -1.0503239309e-02 0.0
5.8797095247e-03 6.2353728253e-03 0.0
5.2555410938e-03 6.9260266278e-02 0.0
-9.3564136795e-03 5.0718161954e-02 0.0
-7.4115803657e-03 1.9962807434e-02 0.0
-2.3858638441e-02 -1.9086458496e-02 0.0
-4.6796219144e-02 -4.3613947712e-02 0.0
1.2625178600e-01 1.6515028293e-02 0.0
1.4478542480e-01 5.0777561689e-02 0.0
1.4636484694e-01 7.2284166810e-02 0.0
-2.2354498759e-02 3.1928819864e-02 0.0
-3.5087434259e-02 -1.6349722412e-02 0.0
-3.2658895540e-02 1.2998464102e-02 0.0
-6.4643330567e-02 3.6177120484e-02 0.0
-7.4275801839e-02 -5.3623474533e-02 0.0
-6.3246085459e-02 -1.0699684180e-01 0.0