# vtk DataFile Version 3.0
D2Q9 Periodic Hill Flow at timestep 23500
ASCII
DATASET STRUCTURED_GRID
DIMENSIONS 33 16 1
POINTS 528 double
0.0000000000e+00 1.0381750000e+00 0.0
2.8125000000e-01 1.0161249342e+00 0.0
5.6250000000e-01 8.4579376806e-01 0.0
8.4375000000e-01 6.0969528778e-01 0.0
1.1250000000e+00 3.8986862790e-01 0.0
1.4062500000e+00 1.9393900392e-01 0.0
1.6875000000e+00 7.1699397761e-02 0.0
1.9687500000e+00 3.8175000000e-02 0.0
2.2500000000e+00 3.8175000000e-02 0.0
2.5312500000e+00 3.8175000000e-02 0.0
2.8125000000e+00 3.8175000000e-02 0.0
3.0937500000e+00 3.8175000000e-02 0.0
3.3750000000e+00 3.8175000000e-02 0.0
3.6562500000e+00 3.8175000000e-02 0.0
3.9375000000e+00 3.8175000000e-02 0.0
4.2187500000e+00 3.8175000000e-02 0.0
4.5000000000e+00 3.8175000000e-02 0.0
4.7812500000e+00 3.8175000000e-02 0.0
5.0625000000e+00 3.8175000000e-02 0.0
5.3437500000e+00 3.8175000000e-02 0.0
5.6250000000e+00 3.8175000000e-02 0.0
5.9062500000e+00 3.8175000000e-02 0.0
6.1875000000e+00 3.8175000000e-02 0.0
6.4687500000e+00 3.8175000000e-02 0.0
6.7500000000e+00 3.8175000000e-02 0.0
7.0312500000e+00 3.8175000000e-02 0.0
7.3125000000e+00 7.1699397761e-02 0.0
7.5937500000e+00 1.9393900392e-01 0.0
7.8750000000e+00 3.8986862790e-01 0.0
8.1562500000e+00 6.0969528778e-01 0.0
8.4375000000e+00 8.4579376806e-01 0.0
8.7187500000e+00 1.0161249342e+00 0.0
9.0000000000e+00 1.0381750000e+00 0.0
0.0000000000e+00 1.1145250000e+00 0.0
2.8125000000e-01 1.0933340277e+00 0.0
5.6250000000e-01 9.2963914074e-01 0.0
8.4375000000e-01 7.0273930254e-01 0.0
1.1250000000e+00 4.9147731772e-01 0.0
1.4062500000e+00 3.0318131545e-01 0.0
1.6875000000e+00 1.8570429135e-01 0.0
1.9687500000e+00 1.5348603896e-01 0.0
2.2500000000e+00 1.5348603896e-01 0.0
2.5312500000e+00 1.5348603896e-01 0.0
2.8125000000e+00 1.5348603896e-01 0.0
3.0937500000e+00 1.5348603896e-01 0.0
3.3750000000e+00 1.5348603896e-01 0.0
3.6562500000e+00 1.5348603896e-01 0.0
3.9375000000e+00 1.5348603896e-01 0.0
4.2187500000e+00 1.5348603896e-01 0.0
4.5000000000e+00 1.5348603896e-01 0.0
4.7812500000e+00 1.5348603896e-01 0.0
5.0625000000e+00 1.5348603896e-01 0.0
5.3437500000e+00 1.5348603896e-01 0.0
5.6250000000e+00 1.5348603896e-01 0.0
5.9062500000e+00 1.5348603896e-01 0.0
6.1875000000e+00 1.5348603896e-01 0.0
6.4687500000e+00 1.5348603896e-01 0.0
6.7500000000e+00 1.5348603896e-01 0.0
7.0312500000e+00 1.5348603896e-01 0.0
7.3125000000e+00 1.8570429135e-01 0.0
7.5937500000e+00 3.0318131545e-01 0.0
7.8750000000e+00 4.9147731772e-01 0.0
8.1562500000e+00 7.0273930254e-01 0.0
8.4375000000e+00 9.2963914074e-01 0.0
8.7187500000e+00 1.0933340277e+00 0.0
9.0000000000e+00 1.1145250000e+00 0.0
0.0000000000e+00 1.2077762062e+00 0.0
2.8125000000e-01 1.1876345004e+00 0.0
5.6250000000e-01 1.0320449316e+00 0.0
8.4375000000e-01 8.1637999156e-01 0.0
1.1250000000e+00 6.1557859980e-01 0.0
1.4062500000e+00 4.3660603476e-01 0.0
1.6875000000e+00 3.2494586098e-01 0.0
1.9687500000e+00 2.9432288862e-01 0.0
2.2500000000e+00 2.9432288862e-01 0.0
2.5312500000e+00 2.9432288862e-01 0.0
2.8125000000e+00 2.9432288862e-01 0.0
3.0937500000e+00 2.9432288862e-01 0.0
3.3750000000e+00 2.9432288862e-01 0.0
3.6562500000e+00 2.9432288862e-01 0.0
3.9375000000e+00 2.9432288862e-01 0.0
4.2187500000e+00 2.9432288862e-01 0.0
4.5000000000e+00 2.9432288862e-01 0.0
4.7812500000e+00 2.9432288862e-01 0.0
5.0625000000e+00 2.9432288862e-01 0.0
5.3437500000e+00 2.9432288862e-01 0.0
5.6250000000e+00 2.9432288862e-01 0.0
5.9062500000e+00 2.9432288862e-01 0.0
6.1875000000e+00 2.9432288862e-01 0.0
6.4687500000e+00 2.9432288862e-01 0.0
6.7500000000e+00 2.9432288862e-01 0.0
7.0312500000e+00 2.9432288862e-01 0.0
7.3125000000e+00 3.2494586098e-01 0.0
7.5937500000e+00 4.3660603476e-01 0.0
7.8750000000e+00 6.1557859980e-01 0.0
8.1562500000e+00 8.1637999156e-01 0.0
8.4375000000e+00 1.0320449316e+00 0.0
8.7187500000e+00 1.1876345004e+00 0.0
9.0000000000e+00 1.2077762062e+00 0.0
0.0000000000e+00 1.3193302628e+00 0.0
2.8125000000e-01 1.3004437680e+00 0.0
5.6250000000e-01 1.1545503861e+00 0.0
8.4375000000e-01 9.5232547010e-01 0.0
1.1250000000e+00 7.6403782092e-01 0.0
1.4062500000e+00 5.9621864774e-01 0.0
1.6875000000e+00 4.9151702468e-01 0.0
1.9687500000e+00 4.6280244544e-01 0.0
2.2500000000e+00 4.6280244544e-01 0.0
2.5312500000e+00 4.6280244544e-01 0.0
2.8125000000e+00 4.6280244544e-01 0.0
3.0937500000e+00 4.6280244544e-01 0.0
3.3750000000e+00 4.6280244544e-01 0.0
3.6562500000e+00 4.6280244544e-01 0.0
3.9375000000e+00 4.6280244544e-01 0.0
4.2187500000e+00 4.6280244544e-01 0.0
4.5000000000e+00 4.6280244544e-01 0.0
4.7812500000e+00 4.6280244544e-01 0.0
5.0625000000e+00 4.6280244544e-01 0.0
5.3437500000e+00 4.6280244544e-01 0.0
5.6250000000e+00 4.6280244544e-01 0.0
5.9062500000e+00 4.6280244544e-01 0.0
6.1875000000e+00 4.6280244544e-01 0.0
6.4687500000e+00 4.6280244544e-01 0.0
6.7500000000e+00 4.6280244544e-01 0.0
7.0312500000e+00 4.6280244544e-01 0.0
7.3125000000e+00 4.9151702468e-01 0.0
7.5937500000e+00 5.9621864774e-01 0.0
7.8750000000e+00 7.6403782092e-01 0.0
8.1562500000e+00 9.5232547010e-01 0.0
8.4375000000e+00 1.1545503861e+00 0.0
8.7187500000e+00 1.3004437680e+00 0.0
9.0000000000e+00 1.3193302628e+00 0.0
0.0000000000e+00 1.4495132424e+00 0.0
2.8125000000e-01 1.4320915722e+00 0.0
5.6250000000e-01 1.2975135877e+00 0.0
8.4375000000e-01 1.1109731070e+00 0.0
1.1250000000e+00 9.3728892765e-01 0.0
1.4062500000e+00 7.8248570235e-01 0.0
1.6875000000e+00 6.8590467030e-01 0.0
1.9687500000e+00 6.5941717548e-01 0.0
2.2500000000e+00 6.5941717548e-01 0.0
2.5312500000e+00 6.5941717548e-01 0.0
2.8125000000e+00 6.5941717548e-01 0.0
3.0937500000e+00 6.5941717548e-01 0.0
3.3750000000e+00 6.5941717548e-01 0.0
3.6562500000e+00 6.5941717548e-01 0.0
3.9375000000e+00 6.5941717548e-01 0.0
4.2187500000e+00 6.5941717548e-01 0.0
4.5000000000e+00 6.5941717548e-01 0.0
4.7812500000e+00 6.5941717548e-01 0.0
5.0625000000e+00 6.5941717548e-01 0.0
5.3437500000e+00 6.5941717548e-01 0.0
5.6250000000e+00 6.5941717548e-01 0.0
5.9062500000e+00 6.5941717548e-01 0.0
6.1875000000e+00 6.5941717548e-01 0.0
6.4687500000e+00 6.5941717548e-01 0.0
6.7500000000e+00 6.5941717548e-01 0.0
7.0312500000e+00 6.5941717548e-01 0.0
7.3125000000e+00 6.8590467030e-01 0.0
7.5937500000e+00 7.8248570235e-01 0.0
7.8750000000e+00 9.3728892765e-01 0.0
8.1562500000e+00 1.1109731070e+00 0.0
8.4375000000e+00 1.2975135877e+00 0.0
8.7187500000e+00 1.4320915722e+00 0.0
9.0000000000e+00 1.4495132424e+00 0.0
0.0000000000e+00 1.5971143014e+00 0.0
2.8125000000e-01 1.5813534446e+00 0.0
5.6250000000e-01 1.4596048228e+00 0.0
8.4375000000e-01 1.2908473063e+00 0.0
1.1250000000e+00 1.1337204957e+00 0.0
1.4062500000e+00 9.9367471176e-01 0.0
1.6875000000e+00 9.0630078063e-01 0.0
1.9687500000e+00 8.8233834724e-01 0.0
2.2500000000e+00 8.8233834724e-01 0.0
2.5312500000e+00 8.8233834724e-01 0.0
2.8125000000e+00 8.8233834724e-01 0.0
3.0937500000e+00 8.8233834724e-01 0.0
3.3750000000e+00 8.8233834724e-01 0.0
3.6562500000e+00 8.8233834724e-01 0.0
3.9375000000e+00 8.8233834724e-01 0.0
4.2187500000e+00 8.8233834724e-01 0.0
4.5000000000e+00 8.8233834724e-01 0.0
4.7812500000e+00 8.8233834724e-01 0.0
5.0625000000e+00 8.8233834724e-01 0.0
5.3437500000e+00 8.8233834724e-01 0.0
5.6250000000e+00 8.8233834724e-01 0.0
5.9062500000e+00 8.8233834724e-01 0.0
6.1875000000e+00 8.8233834724e-01 0.0
6.4687500000e+00 8.8233834724e-01 0.0
6.7500000000e+00 8.8233834724e-01 0.0
7.0312500000e+00 8.8233834724e-01 0.0
7.3125000000e+00 9.0630078063e-01 0.0
7.5937500000e+00 9.9367471176e-01 0.0
7.8750000000e+00 1.1337204957e+00 0.0
8.1562500000e+00 1.2908473063e+00 0.0
8.4375000000e+00 1.4596048228e+00 0.0
8.7187500000e+00 1.5813534446e+00 0.0
9.0000000000e+00 1.5971143014e+00 0.0
0.0000000000e+00 1.7590868131e+00 0.0
2.8125000000e-01 1.7451484779e+00 0.0
5.6250000000e-01 1.6374783736e+00 0.0
8.4375000000e-01 1.4882352927e+00 0.0
1.1250000000e+00 1.3492779901e+00 0.0
1.4062500000e+00 1.2254265334e+00 0.0
1.6875000000e+00 1.1481561697e+00 0.0
1.9687500000e+00 1.1269646551e+00 0.0
2.2500000000e+00 1.1269646551e+00 0.0
2.5312500000e+00 1.1269646551e+00 0.0
2.8125000000e+00 1.1269646551e+00 0.0
3.0937500000e+00 1.1269646551e+00 0.0
3.3750000000e+00 1.1269646551e+00 0.0
3.6562500000e+00 1.1269646551e+00 0.0
3.9375000000e+00 1.1269646551e+00 0.0
4.2187500000e+00 1.1269646551e+00 0.0
4.5000000000e+00 1.1269646551e+00 0.0
4.7812500000e+00 1.1269646551e+00 0.0
5.0625000000e+00 1.1269646551e+00 0.0
5.3437500000e+00 1.1269646551e+00 0.0
5.6250000000e+00 1.1269646551e+00 0.0
5.9062500000e+00 1.1269646551e+00 0.0
6.1875000000e+00 1.1269646551e+00 0.0
6.4687500000e+00 1.1269646551e+00 0.0
6.7500000000e+00 1.1269646551e+00 0.0
7.0312500000e+00 1.1269646551e+00 0.0
7.3125000000e+00 1.1481561697e+00 0.0
7.5937500000e+00 1.2254265334e+00 0.0
7.8750000000e+00 1.3492779901e+00 0.0
8.1562500000e+00 1.4882352927e+00 0.0
8.4375000000e+00 1.6374783736e+00 0.0
8.7187500000e+00 1.7451484779e+00 0.0
9.0000000000e+00 1.7590868131e+00 0.0
0.0000000000e+00 1.9305824874e+00 0.0
2.8125000000e-01 1.9185738289e+00 0.0
5.6250000000e-01 1.8258099875e+00 0.0
8.4375000000e-01 1.6972286922e+00 0.0
1.1250000000e+00 1.5775091725e+00 0.0
1.4062500000e+00 1.4708041873e+00 0.0
1.6875000000e+00 1.4042314297e+00 0.0
1.9687500000e+00 1.3859737498e+00 0.0
2.2500000000e+00 1.3859737498e+00 0.0
2.5312500000e+00 1.3859737498e+00 0.0
2.8125000000e+00 1.3859737498e+00 0.0
3.0937500000e+00 1.3859737498e+00 0.0
3.3750000000e+00 1.3859737498e+00 0.0
3.6562500000e+00 1.3859737498e+00 0.0
3.9375000000e+00 1.3859737498e+00 0.0
4.2187500000e+00 1.3859737498e+00 0.0
4.5000000000e+00 1.3859737498e+00 0.0
4.7812500000e+00 1.3859737498e+00 0.0
5.0625000000e+00 1.3859737498e+00 0.0
5.3437500000e+00 1.3859737498e+00 0.0
5.6250000000e+00 1.3859737498e+00 0.0
5.9062500000e+00 1.3859737498e+00 0.0
6.1875000000e+00 1.3859737498e+00 0.0
6.4687500000e+00 1.3859737498e+00 0.0
6.7500000000e+00 1.3859737498e+00 0.0
7.0312500000e+00 1.3859737498e+00 0.0
7.3125000000e+00 1.4042314297e+00 0.0
7.5937500000e+00 1.4708041873e+00 0.0
[...]
POINT_DATA 528

SCALARS Density double 1
LOOKUP_TABLE default
5.3645019382e-01
5.4368336590e-01
5.4199882888e-01
5.3773874862e-01
5.2334138502e-01
5.0654986186e-01
5.5111510039e-01
5.5383624556e-01
5.6390497959e-01
5.4388646784e-01
5.0642362429e-01
5.0438156858e-01
5.2894429691e-01
6.0321564278e-01
5.8848814525e-01
5.5704505389e-01
4.8163080099e-01
4.7534227514e-01
4.3414948410e-01
4.1923578200e-01
4.1711833238e-01
4.2171146517e-01
4.3978481053e-01
4.4485773448e-01
4.6805271928e-01
4.7221347554e-01
4.7741293674e-01
4.4522096198e-01
3.9823505016e-01
3.8912111664e-01
3.8855716140e-01
4.1452038826e-01
4.0644029568e-01
5.1293313231e-01
5.2812635267e-01
5.5014911445e-01
5.5733606615e-01
5.3739275883e-01
5.4520283737e-01
5.6447813406e-01
5.8796014794e-01
5.6125569994e-01
5.0965114522e-01
4.8635050042e-01
4.7261618919e-01
6.0386480646e-01
6.0834760510e-01
6.1731461486e-01
5.1241592411e-01
4.7043343980e-01
4.5770350640e-01
4.2789022158e-01
4.0221565254e-01
3.8283873101e-01
3.8074067447e-01
3.9988595955e-01
4.4086609011e-01
4.5527242617e-01
4.6881445989e-01
4.5430960224e-01
4.3905638737e-01
4.2169552044e-01
3.8985920329e-01
3.8621352417e-01
3.9129753275e-01
3.8689722354e-01
5.3852470533e-01
5.7451461426e-01
5.7291872270e-01
5.6309693116e-01
5.5862811739e-01
5.7326568711e-01
5.9865257523e-01
5.7487033409e-01
5.2153835613e-01
4.8236619621e-01
4.8934183678e-01
5.9528097279e-01
6.1950296746e-01
6.1116973519e-01
5.1472306127e-01
4.8183740574e-01
4.5907922158e-01
4.2611115808e-01
4.0192251251e-01
3.7355120176e-01
3.7262226308e-01
3.9396204045e-01
4.3058927194e-01
4.5403365501e-01
4.6386986913e-01
4.5644117794e-01
4.5272691949e-01
4.3641086800e-01
4.1010751014e-01
3.8976477636e-01
3.7909619766e-01
3.7710534563e-01
3.9731259092e-01
5.6202179701e-01
5.7925901743e-01
5.7532313946e-01
5.6613287218e-01
5.7612168271e-01
5.9841390728e-01
5.7448725323e-01
5.1706718197e-01
4.7794908407e-01
4.8167426289e-01
6.0105970244e-01
6.1236995832e-01
6.1756066206e-01
5.0742143559e-01
4.8492023319e-01
4.6362575674e-01
4.1748038302e-01
4.0244054797e-01
3.6787860337e-01
3.7100364060e-01
3.9622429200e-01
4.3001768928e-01
4.5565851287e-01
4.6419797160e-01
4.5842019248e-01
4.5682798027e-01
4.4259003140e-01
4.0915619390e-01
3.8802458860e-01
3.7424294108e-01
3.7394249029e-01
3.9664765052e-01
4.4938810993e-01
5.8321931822e-01
5.7409376679e-01
5.6229847534e-01
5.7680022246e-01
5.9681171452e-01
5.7337105081e-01
5.1319718256e-01
4.7601583207e-01
4.7845032216e-01
6.0846179997e-01
6.1299317287e-01
6.2641262961e-01
4.9931993833e-01
4.8486683523e-01
4.6308695551e-01
4.1388129316e-01
4.0067552999e-01
3.6383005972e-01
3.7046576376e-01
3.9943815028e-01
4.3280453943e-01
4.5714825181e-01
4.6616161620e-01
4.5977192569e-01
4.5925851329e-01
4.4399522768e-01
4.0888665263e-01
3.8037370708e-01
3.7124795515e-01
3.7345226552e-01
3.9939478044e-01
4.6050604103e-01
4.6739406614e-01
5.7616123632e-01
5.5863070000e-01
5.7821816171e-01
5.9704293157e-01
5.7247641533e-01
5.1055329575e-01
4.7534308727e-01
4.7660117899e-01
6.1158731816e-01
6.1539016940e-01
6.2708542645e-01
4.9668388902e-01
4.8187707471e-01
4.6529352829e-01
4.1277842016e-01
3.9750681571e-01
3.6261625842e-01
3.7043740994e-01
4.0104477980e-01
4.3439720497e-01
4.5687096046e-01
4.6656212051e-01
4.6040841556e-01
4.6052450245e-01
4.4284906612e-01
4.0702613878e-01
3.7539675725e-01
3.6985783261e-01
3.7423353964e-01
3.9544885370e-01
4.6303919252e-01
4.7006780892e-01
4.8101188256e-01
5.5686830083e-01
5.7778363311e-01
5.9738546632e-01
5.7236701231e-01
5.0948522896e-01
4.7542666867e-01
4.7378916342e-01
6.1345812573e-01
6.1674081514e-01
6.2704009637e-01
4.9532706542e-01
4.7955198316e-01
4.6681836212e-01
4.1214490813e-01
3.9487463336e-01
3.6238062324e-01
3.7002382842e-01
4.0207444650e-01
4.3576330073e-01
4.5660123568e-01
4.6727954181e-01
4.6077505561e-01
4.6163971210e-01
4.4197002705e-01
4.0521646090e-01
3.7295433319e-01
3.6871557227e-01
3.7512244098e-01
3.9309858993e-01
4.6671844127e-01
4.7266032922e-01
4.8090549239e-01
4.9905580105e-01
5.7704774265e-01
5.9808125945e-01
5.7197235782e-01
5.0988425199e-01
4.7638579734e-01
4.7273689585e-01
6.1433566071e-01
6.1714315088e-01
6.2715515737e-01
4.9473318829e-01
4.7805689077e-01
4.6768920618e-01
4.1218378243e-01
3.9305729801e-01
3.6258515961e-01
3.6976630336e-01
4.0254172408e-01
4.3671013706e-01
4.5625521276e-01
4.6780267310e-01
4.6062551707e-01
4.6245857166e-01
4.4144511709e-01
4.0421989313e-01
3.7255678996e-01
3.6801788485e-01
3.7597759081e-01
3.9053071861e-01
4.6875500307e-01
4.7398379530e-01
4.8049769824e-01
5.0153364885e-01
4.9448035509e-01
5.9828403441e-01
5.7236074300e-01
5.1052664585e-01
4.7882346188e-01
4.7262364599e-01
6.1461878769e-01
6.1596060834e-01
6.2742429379e-01
4.9485599761e-01
4.7692158582e-01
4.6793907859e-01
4.1269156090e-01
3.9206466571e-01
3.6314972786e-01
3.6962083123e-01
4.0239442963e-01
4.3737414815e-01
4.5588801569e-01
4.6816179801e-01
4.6002147695e-01
4.6296302831e-01
4.4130482404e-01
4.0391016135e-01
3.7262621695e-01
3.6763757738e-01
3.7657512542e-01
3.8860734414e-01
4.6918798898e-01
4.7508875596e-01
4.7896561290e-01
5.0362632369e-01
4.9342885396e-01
4.9226202666e-01
5.7338236446e-01
5.1368591546e-01
4.8304203043e-01
4.7226935713e-01
6.1414056006e-01
6.1347403692e-01
6.2994202758e-01
4.9595185047e-01
4.7594543562e-01
4.6765283380e-01
4.1370217964e-01
3.9185986555e-01
3.6404105818e-01
3.6955691143e-01
4.0167456813e-01
4.3778157974e-01
4.5547379039e-01
4.6838355042e-01
4.5895847497e-01
4.6317088923e-01
4.4158366618e-01
4.0426446975e-01
3.7310447680e-01
3.6710873146e-01
3.7705999511e-01
3.8782766700e-01
4.6858633451e-01
4.7610795456e-01
4.7759133444e-01
5.0463837337e-01
4.9274452444e-01
4.9064051168e-01
4.2162391239e-01
5.1670631138e-01
4.8761843533e-01
4.7379935399e-01
6.1191682617e-01
6.0998617145e-01
6.3120632067e-01
5.0112127434e-01
4.7489182416e-01
4.6684073661e-01
4.1531380700e-01
3.9238674243e-01
3.6534433355e-01
3.6957769424e-01
4.0046172315e-01
4.3787579916e-01
4.5507401589e-01
4.6843584348e-01
4.5739790789e-01
4.6309311319e-01
4.4226521858e-01
4.0524235008e-01
3.7408117090e-01
3.6636335792e-01
3.7765465429e-01
3.8779996832e-01
4.6728121206e-01
4.7704483641e-01
4.7615313311e-01
5.0591632637e-01
4.9091972819e-01
4.9056602995e-01
4.2130370033e-01
4.1243459049e-01
4.9345929707e-01
4.7921283685e-01
6.0607109989e-01
6.0668058793e-01
6.2939391785e-01
5.0719903891e-01
4.7359774943e-01
4.6550202782e-01
4.1735218379e-01
3.9361389488e-01
3.6714728219e-01
3.6952327451e-01
3.9880188652e-01
4.3746837874e-01
4.5495756946e-01
4.6768547151e-01
4.5543756326e-01
4.6245022486e-01
4.4316150529e-01
4.0684899585e-01
3.7545827151e-01
3.6543112089e-01
3.7829076958e-01
3.8765826646e-01
4.6548766499e-01
4.7761423140e-01
4.7573657853e-01
5.0582577170e-01
4.8894653105e-01
4.9212568847e-01
4.2099707290e-01
4.1279398714e-01
3.9149261618e-01
4.8766834828e-01
5.8922420334e-01
6.0688152760e-01
6.2101737301e-01
5.1250389614e-01
4.7582191483e-01
4.6247390958e-01
4.2070167369e-01
3.9589356636e-01
3.6889346877e-01
3.6984393988e-01
3.9695664003e-01
4.3627202656e-01
4.5476794567e-01
4.6524324616e-01
4.5442578722e-01
4.6041895154e-01
4.4542821715e-01
4.0896898096e-01
3.7666108296e-01
3.6673972796e-01
3.7642937828e-01
3.8974856710e-01
4.6268357421e-01
4.7717143167e-01
4.7727386360e-01
5.0049397013e-01
4.9301365124e-01
4.8627411383e-01
4.2719818853e-01
4.1084078969e-01
3.9425644184e-01
3.9160865675e-01
5.8062325825e-01
6.2447113379e-01
6.0622352370e-01
5.2294162037e-01
4.8036351742e-01
4.5695262229e-01
4.2402176800e-01
3.9730727891e-01
3.6834371214e-01
3.7038839388e-01
3.9477599466e-01
4.3236713065e-01
4.5532611424e-01
4.6191266042e-01
4.5719029774e-01
4.5711296838e-01
4.4765856789e-01
4.1001226836e-01
3.7788004619e-01
3.6659549739e-01
3.7186812978e-01
3.9395219712e-01
4.5735466906e-01
4.7571957100e-01
4.7975798715e-01
4.9623610647e-01
4.9879933530e-01
4.7959241328e-01
4.3642120414e-01
4.0633370645e-01
3.9403236442e-01
3.9292110636e-01
4.2543700105e-01
6.3832000473e-01
6.0924905538e-01
5.3123569769e-01
4.9401572665e-01
4.5541592283e-01
4.1984804728e-01
3.9917667630e-01
3.5348520587e-01
3.6152232652e-01
3.8502478099e-01
4.2130054895e-01
4.5322844783e-01
4.5888237782e-01
4.5854439165e-01
4.5463563305e-01
4.4737424784e-01
4.0711476275e-01
3.6972523306e-01
3.5965503666e-01
3.6092763183e-01
3.8556237552e-01
4.5683208269e-01
4.6665003691e-01
4.8177891642e-01
4.9459392853e-01
5.0141869945e-01
4.8631743914e-01
4.2903999623e-01
4.0917385277e-01
3.8065691474e-01
3.8514813099e-01
4.1671998115e-01
4.5253733957e-01
6.3583266005e-01
5.5875200076e-01
5.1330990764e-01
4.7266012146e-01
4.5093501295e-01
3.9489308579e-01
3.3568932328e-01
3.2663084419e-01
3.4783986009e-01
4.0209879211e-01
4.3607910188e-01
4.4612975468e-01
4.6111881463e-01
4.6584087338e-01
4.7446177084e-01
4.1946670921e-01
3.5884557912e-01
3.3282952860e-01
3.3669822651e-01
3.5671429402e-01
4.2281065543e-01
4.6355873849e-01
4.7322828860e-01
4.8407197193e-01
5.0275551330e-01
5.0478185573e-01
4.6055757161e-01
3.9753080811e-01
3.6647283798e-01
3.6563939626e-01
3.9634408096e-01
4.3755863286e-01
4.5957915551e-01

VECTORS Velocity double
-4.1990477438e-02 9.1704624967e-02 0.0
-5.0106152138e-02 1.1458407531e-01 0.0
-2.7168408363e-02 8.9452679468e-03 0.0
2.7663168299e-03 -3.6253383007e-02 0.0
-1.6191336171e-02 8.5747868519e-03 0.0
-5.6222981163e-05 -2.9690176863e-02 0.0
-6.0753571869e-02 8.5995133574e-02 0.0
3.3912293800e-03 1.1906610693e-02 0.0
-2.4390945608e-02 7.1724604116e-02 0.0
-3.1723711823e-02 5.1429390712e-02 0.0
-3.2473988781e-02 6.9335664720e-02 0.0
-5.7682574073e-02 7.4663312703e-02 0.0
-5.6924703917e-02 1.2111888867e-01 0.0
1.4269957040e-01 -3.4977236343e-02 0.0
1.4227621420e-01 3.1321658522e-03 0.0
1.5029036229e-01 -2.1399950362e-02 0.0
-3.2167680643e-02 -3.4443840632e-03 0.0
-3.2366406849e-02 -3.4305333577e-03 0.0
-3.6173962121e-02 3.7458959654e-03 0.0
-6.0674176199e-02 -1.4531758191e-02 0.0
-4.2203716447e-02 3.7341747075e-02 0.0
-3.5535141875e-02 1.0820189758e-02 0.0
-2.8421581929e-02 -7.9304561222e-03 0.0
4.8966185429e-03 1.5492609209e-02 0.0
7.1289499476e-03 2.0018570914e-02 0.0
9.0441149320e-03 5.1900483115e-03 0.0
1.6277623234e-03 1.6514014023e-02 0.0
1.3647869951e-02 9.0213965521e-04 0.0
2.6263387169e-02 -7.6742005862e-03 0.0
1.2868077054e-01 1.2297960763e-01 0.0
1.5140985814e-01 1.6284661133e-01 0.0
-4.9539472615e-02 -6.6745895727e-02 0.0
-1.5694024475e-02 9.3571469166e-02 0.0
-3.2291503244e-04 -8.1907974978e-02 0.0
1.7522769749e-02 -7.9192390034e-02 0.0
2.7810536759e-02 -2.2625650406e-02 0.0
2.7357268924e-02 -7.7394392197e-04 0.0
-3.0120742059e-02 -3.7179071488e-02 0.0
-3.4969650055e-05 8.3289368856e-04 0.0
-3.2647424149e-03 1.3566468036e-02 0.0
9.1269972752e-03 5.8381977481e-02 0.0
-1.0240366796e-02 3.5032621005e-02 0.0
-8.4941955467e-03 1.1006534843e-02 0.0
-2.3297713903e-02 -9.1991262963e-03 0.0
-3.6702493175e-02 -8.8481733173e-02 0.0
1.3163685590e-01 9.4558916295e-03 0.0
1.4004169274e-01 4.1099832073e-02 0.0
1.5571350919e-01 8.7985117696e-02 0.0
-1.2825130377e-02 5.5010567391e-02 0.0
-3.4520170286e-02 -1.7041582760e-02 0.0
-3.0955426572e-02 3.5892471982e-02 0.0
-7.2560886188e-02 2.5723163659e-02 0.0
-6.4817267456e-02 -2.4053874040e-02 0.0
-6.1570917216e-02 -8.7943289129e-02 0.0
-4.4207596471e-02 -1.2519671926e-01 0.0
-4.9284273592e-03 -8.4195901438e-02 0.0
-3.9194254591e-03 -3.8716679759e-02 0.0
-5.7279389525e-03 -3.8894742370e-02 0.0
2.0871483729e-03 -2.2435912531e-03 0.0
3.0929719423e-03 6.7843198483e-04 0.0
1.6135975475e-02 8.0407910942e-03 0.0
-1.1165604684e-02 4.7462451120e-02 0.0
-3.5622060463e-02 -6.3733107888e-02 0.0
-4.4420723582e-02 -1.0879132059e-01 0.0
-3.1367523063e-02 -2.5547191306e-02 0.0
-4.9730706667e-02 -9.0456315071e-02 0.0
2.3432480610e-02 -3.2888291766e-02 0.0
1.5563433921e-02 1.0797070018e-03 0.0
9.1439381816e-03 1.3032920166e-02 0.0
-7.5547074292e-03 1.5572470272e-02 0.0
-6.4343026691e-03 2.6151278335e-02 0.0
-6.1070644339e-03 3.6868135999e-02 0.0
9.4420987406e-03 6.6301047808e-02 0.0
-8.2298553782e-03 5.5076639066e-02 0.0
-9.3427283289e-03 2.8680729543e-02 0.0
-2.6534677786e-02 -5.9088828786e-03 0.0
-2.8478305428e-02 -4.6170278908e-02 0.0
1.3205410639e-01 -2.4622947162e-03 0.0
1.4404893058e-01 4.9016152535e-02 0.0
1.5101551595e-01 7.0766798448e-02 0.0
-1.2324610521e-02 6.2383583421e-02 0.0
-3.4968779120e-02 -3.6802251908e-03 0.0
-3.3212260340e-02 2.2588227747e-02 0.0
-6.5900234510e-02 3.9087565723e-02 0.0
-6.9798118518e-02 -3.2565692937e-02 0.0
-5.9476514933e-02 -9.3991425682e-02 0.0
-4.9304828523e-02 -1.3809648568e-01 0.0
-3.6971098937e-03 -1.0031120219e-01 0.0
-4.1845859690e-03 -5.1971282855e-02 0.0
-5.1751142145e-03 -3.8261333219e-02 0.0
1.0157234707e-03 -1.7732613339e-02 0.0
5.5099086351e-03 -1.8276513149e-03 0.0
2.4554373483e-02 2.8027219990e-02 0.0
-1.1079879540e-02 5.6520430435e-02 0.0
-4.3642663503e-02 -7.3315857953e-03 0.0
-4.7036332870e-02 -7.8197626091e-02 0.0
-3.6800714253e-02 -7.6804775109e-02 0.0
-5.3242740147e-02 -7.9077493047e-02 0.0
-2.8233363331e-02 -9.7096301131e-02 0.0
2.1047212905e-02 -4.4520166268e-03 0.0
1.0622475676e-02 2.2035642749e-02 0.0
-6.0615512990e-03 2.6007975211e-02 0.0
-8.1723687106e-03 3.0403208129e-02 0.0
-7.1879149581e-03 3.7646093092e-02 0.0
1.4081800178e-02 6.0529334883e-02 0.0
-5.4835181726e-03 5.5705293089e-02 0.0
-1.1579865919e-02 1.9696875796e-02 0.0
-2.5142878479e-02 -1.2650663025e-02 0.0
-2.8324735403e-02 -3.9338907074e-02 0.0
1.3242309768e-01 -6.1888775449e-03 0.0
1.4870998345e-01 6.1916135037e-02 0.0
1.4625216579e-01 6.4023090931e-02 0.0
-1.2241097872e-02 6.2736679369e-02 0.0
-3.7559439620e-02 -1.2091160787e-02 0.0
-3.2769603910e-02 1.5179324797e-02 0.0
-6.2670870031e-02 4.8260185881e-02 0.0
-7.4024155540e-02 -4.8905515000e-02 0.0
-5.5620538144e-02 -9.3321038689e-02 0.0
-5.4404412698e-02 -1.4041847639e-01 0.0
-1.5450581809e-03 -9.6541131198e-02 0.0
-4.9359979669e-03 -4.0853979170e-02 0.0
-5.1725025383e-03 -3.5263495673e-02 0.0
8.6437240698e-04 -2.0633599793e-02 0.0
6.0372734318e-03 1.4106998286e-03 0.0
2.7635281912e-02 2.8396160551e-02 0.0
-4.8093013971e-03 5.2573013692e-02 0.0
-3.5325993181e-02 -3.1197046026e-03 0.0
-4.6483020685e-02 -8.0188644062e-02 0.0
-3.7815985068e-02 -8.7167437003e-02 0.0
-4.7447484924e-02 -7.5747864168e-02 0.0
-2.1838970361e-02 -9.3248183641e-02 0.0
-2.8158815542e-02 -6.1966847344e-02 0.0
1.1320046625e-02 1.4496970423e-02 0.0
-5.6734392524e-03 2.7222092144e-02 0.0
-9.3000935316e-03 3.2788002968e-02 0.0
-6.3626635586e-03 4.1544043283e-02 0.0
1.4596251005e-02 6.2998349976e-02 0.0
-4.2565047370e-03 4.9977895538e-02 0.0
-8.3486565106e-03 1.6204426063e-02 0.0
-2.5375065207e-02 -1.7080429526e-02 0.0
-2.8176017062e-02 -3.7673598190e-02 0.0
1.3372559265e-01 2.6614725197e-03 0.0
1.4790271341e-01 5.7832120641e-02 0.0
1.4462620359e-01 6.5659944046e-02 0.0
-1.5892446576e-02 5.0532243625e-02 0.0
-3.6704108004e-02 -1.0167810109e-02 0.0
-3.3005821784e-02 1.0475525882e-02 0.0
-6.2170244396e-02 4.5430578526e-02 0.0
-7.3434895782e-02 -4.9889545946e-02 0.0
-5.7404263709e-02 -9.9561427462e-02 0.0
-5.4615329885e-02 -1.3793032368e-01 0.0
-2.1541975968e-03 -9.4980398689e-02 0.0
-4.4231361730e-03 -3.8358904567e-02 0.0
-5.2862051923e-03 -3.5033942554e-02 0.0
8.9292722066e-04 -2.0615062856e-02 0.0
5.8104448223e-03 -1.3715011710e-03 0.0
2.8344535289e-02 3.3561404811e-02 0.0
2.0771806646e-03 4.7182544544e-02 0.0
-3.5903571614e-02 -5.4646237259e-03 0.0
-4.2360807051e-02 -8.5353636143e-02 0.0
-3.9048239948e-02 -9.5568628865e-02 0.0
-4.9994333038e-02 -7.7970367622e-02 0.0
-1.6905656831e-02 -8.4657279643e-02 0.0
-2.2099849877e-02 -5.4576792614e-02 0.0
-3.5172573153e-02 -1.6110268005e-02 0.0
-4.2681203092e-03 2.9295274266e-02 0.0
-1.4156513645e-02 3.1990017421e-02 0.0
-5.0414722839e-03 4.3214973037e-02 0.0
1.3763011110e-02 6.4564312186e-02 0.0
-3.7029676226e-03 4.8303052216e-02 0.0
-6.0064282307e-03 1.5328179593e-02 0.0
-2.4382605579e-02 -1.9364962373e-02 0.0
-2.8259154453e-02 -3.5367317952e-02 0.0
1.3509487435e-01 9.3450861135e-03 0.0
1.4668725470e-01 5.6215286068e-02 0.0
1.4488243365e-01 6.7103654524e-02 0.0
-1.8533721525e-02 4.3961722846e-02 0.0
-3.6153692386e-02 -1.3540820943e-02 0.0
-3.2994653406e-02 9.1785392235e-03 0.0
-6.1757490690e-02 4.1909931822e-02 0.0
-7.3141247451e-02 -5.2805666265e-02 0.0
-5.8635299989e-02 -1.0280800939e-01 0.0
-5.4534846607e-02 -1.3597495173e-01 0.0
-2.6946143142e-03 -9.2756351141e-02 0.0
-4.0467801219e-03 -3.5632657007e-02 0.0
-5.3663103587e-03 -3.3745623235e-02 0.0
9.1831550241e-04 -2.0138776036e-02 0.0
5.6261420519e-03 -2.5699007691e-03 0.0
2.8845835240e-02 3.7051591353e-02 0.0
2.7075794198e-03 4.5249505693e-02 0.0
-3.6259616539e-02 -1.0495989619e-02 0.0
-3.9172211353e-02 -8.6900825539e-02 0.0
-4.0482159427e-02 -1.0007589241e-01 0.0
-5.1332752757e-02 -7.5660740855e-02 0.0
-2.0378362583e-02 -7.2582016085e-02 0.0
-1.5045612433e-02 -4.8170857709e-02 0.0
-3.6586741554e-02 -1.1325293594e-02 0.0
-3.3403987353e-02 -1.7354279680e-02 0.0
-1.6181765673e-02 3.0069712323e-02 0.0
-1.0158659650e-03 4.5794160906e-02 0.0
1.2592725873e-02 6.5507737022e-02 0.0
-3.6508566153e-03 4.8156735984e-02 0.0
-5.3927358515e-03 1.5108827799e-02 0.0
-2.3627954620e-02 -2.0271579658e-02 0.0
-3.6405652782e-02 -3.6275748378e-02 0.0
1.3585613883e-01 1.4118357702e-02 0.0
1.4578076650e-01 5.4305919235e-02 0.0
1.4531296314e-01 6.8380687808e-02 0.0
-2.0408048481e-02 3.8272255887e-02 0.0
-3.5695077384e-02 -1.5308269993e-02 0.0
-3.2956423732e-02 9.7534929873e-03 0.0
-6.1664757459e-02 3.8745695803e-02 0.0
-7.2822911070e-02 -5.4412136204e-02 0.0
-5.9558663691e-02 -1.0445277693e-01 0.0
-5.4366317533e-02 -1.3498256496e-01 0.0
-3.1349081651e-03 -9.1027803742e-02 0.0
-3.7836401374e-03 -3.4179889166e-02 0.0
-5.4152295613e-03 -3.3091576085e-02 0.0
9.5704292081e-04 -1.9555546312e-02 0.0
5.4739191458e-03 -3.5066098054e-03 0.0
2.9127315233e-02 3.9292620047e-02 0.0
3.1592497282e-03 4.3990248725e-02 0.0
-3.7104273682e-02 -1.5194920010e-02 0.0
-3.7557970327e-02 -8.7611063541e-02 0.0
-4.2010793283e-02 -1.0232216468e-01 0.0
-5.1916263358e-02 -7.4700687249e-02 0.0
-2.2417990597e-02 -6.5587658293e-02 0.0
-1.9939310084e-02 -4.3602985576e-02 0.0
-3.7715536616e-02 -1.0135238129e-02 0.0
-3.1394579145e-02 -1.8125308530e-02 0.0
4.6257212057e-04 -1.2954819324e-02 0.0
3.8542562613e-05 4.7310488128e-02 0.0
8.3998866003e-03 6.7902939361e-02 0.0
-3.6716499137e-03 4.9707314155e-02 0.0
-5.5723428488e-03 1.6746036468e-02 0.0
-2.3257551546e-02 -2.0102219248e-02 0.0
-4.2989494868e-02 -3.9110087793e-02 0.0
1.3042319492e-01 1.5964269410e-02 0.0
1.4515483543e-01 5.2393718794e-02 0.0
1.4575388035e-01 7.0084940478e-02 0.0
-2.1654097158e-02 3.4310900316e-02 0.0
-3.5324945187e-02 -1.6089411535e-02 0.0
-3.2879838943e-02 1.0973278073e-02 0.0
-6.1829491338e-02 3.5949560124e-02 0.0
-7.2421220417e-02 -5.4840731699e-02 0.0
-6.0276006343e-02 -1.0550513355e-01 0.0
-5.4048198464e-02 -1.3463642116e-01 0.0
-3.4754092173e-03 -8.9776591654e-02 0.0
-3.6197559364e-03 -3.3579356573e-02 0.0
-5.4488653558e-03 -3.2890949420e-02 0.0
1.0222369099e-03 -1.8879690145e-02 0.0
5.3508615828e-03 -4.4436518493e-03 0.0
2.9210975383e-02 4.0620550632e-02 0.0
3.5093866852e-03 4.3468687117e-02 0.0
-3.7670924829e-02 -1.8020337349e-02 0.0
-3.7473144127e-02 -8.8042459276e-02 0.0
-4.3005474985e-02 -1.0261999672e-01 0.0
-5.1879503638e-02 -7.3876487742e-02 0.0
-2.5132114568e-02 -6.1783314044e-02 0.0
-2.4039308678e-02 -3.9283635072e-02 0.0
-3.6328550432e-02 -9.5774336116e-03 0.0
-2.9498820552e-02 -1.8091870721e-02 0.0
2.8698723964e-03 -1.0477386785e-02 0.0
5.8414455923e-03 6.1669140574e-03 0.0
6.8164753635e-03 6.9440021067e-02 0.0
-7.4499665314e-03 5.1027442627e-02 0.0
-5.7497325302e-03 2.0075439500e-02 0.0
-2.2774873628e-02 -1.9019266641e-02 0.0
-4.5934853831e-02 -4.3639879285e-02 0.0
1.2625270441e-01 1.6511804800e-02 0.0
1.4478688684e-01 5.0791695587e-02 0.0
1.4636495765e-01 7.2282483233e-02 0.0
-2.2357173794e-02 3.1936695647e-02 0.0
-3.5066186396e-02 -1.6395107642e-02 0.0
-3.2756738433e-02 1.2871737728e-02 0.0
-6.2283303272e-02 3.3712570602e-02 0.0
-7.1905962260e-02 -5.4279533108e-02 0.0
-6.0836327556e-02 -1.0624163539e-01 0.0