# vtk DataFile Version 3.0
D2Q9 Periodic Hill Flow at timestep 1500
ASCII
DATASET STRUCTURED_GRID
DIMENSIONS 33 16 1
POINTS 528 double
0.0000000000e+00 1.0381750000e+00 0.0
2.8125000000e-01 1.0161249342e+00 0.0
5.6250000000e-01 8.4579376806e-01 0.0
8.4375000000e-01 6.0969528778e-01 0.0
1.1250000000e+00 3.8986862790e-01 0.0
1.4062500000e+00 1.9393900392e-01 0.0
1.6875000000e+00 7.1699397761e-02 0.0
1.9687500000e+00 3.8175000000e-02 0.0
2.2500000000e+00 3.8175000000e-02 0.0
2.5312500000e+00 3.8175000000e-02 0.0
2.8125000000e+00 3.8175000000e-02 0.0
3.0937500000e+00 3.8175000000e-02 0.0
3.3750000000e+00 3.8175000000e-02 0.0
3.6562500000e+00 3.8175000000e-02 0.0
3.9375000000e+00 3.8175000000e-02 0.0
4.2187500000e+00 3.8175000000e-02 0.0
4.5000000000e+00 3.8175000000e-02 0.0
4.7812500000e+00 3.8175000000e-02 0.0
5.0625000000e+00 3.8175000000e-02 0.0
5.3437500000e+00 3.8175000000e-02 0.0
5.6250000000e+00 3.8175000000e-02 0.0
5.9062500000e+00 3.8175000000e-02 0.0
6.1875000000e+00 3.8175000000e-02 0.0
6.4687500000e+00 3.8175000000e-02 0.0
6.7500000000e+00 3.8175000000e-02 0.0
7.0312500000e+00 3.8175000000e-02 0.0
7.3125000000e+00 7.1699397761e-02 0.0
7.5937500000e+00 1.9393900392e-01 0.0
7.8750000000e+00 3.8986862790e-01 0.0
8.1562500000e+00 6.0969528778e-01 0.0
8.4375000000e+00 8.4579376806e-01 0.0
8.7187500000e+00 1.0161249342e+00 0.0
9.0000000000e+00 1.0381750000e+00 0.0
0.0000000000e+00 1.1145250000e+00 0.0
2.8125000000e-01 1.0933340277e+00 0.0
5.6250000000e-01 9.2963914074e-01 0.0
8.4375000000e-01 7.0273930254e-01 0.0
1.1250000000e+00 4.9147731772e-01 0.0
1.4062500000e+00 3.0318131545e-01 0.0
1.6875000000e+00 1.8570429135e-01 0.0
1.9687500000e+00 1.5348603896e-01 0.0
2.2500000000e+00 1.5348603896e-01 0.0
2.5312500000e+00 1.5348603896e-01 0.0
2.8125000000e+00 1.5348603896e-01 0.0
3.0937500000e+00 1.5348603896e-01 0.0
3.3750000000e+00 1.5348603896e-01 0.0
3.6562500000e+00 1.5348603896e-01 0.0
3.9375000000e+00 1.5348603896e-01 0.0
4.2187500000e+00 1.5348603896e-01 0.0
4.5000000000e+00 1.5348603896e-01 0.0
4.7812500000e+00 1.5348603896e-01 0.0
5.0625000000e+00 1.5348603896e-01 0.0
5.3437500000e+00 1.5348603896e-01 0.0
5.6250000000e+00 1.5348603896e-01 0.0
5.9062500000e+00 1.5348603896e-01 0.0
6.1875000000e+00 1.5348603896e-01 0.0
6.4687500000e+00 1.5348603896e-01 0.0
6.7500000000e+00 1.5348603896e-01 0.0
7.0312500000e+00 1.5348603896e-01 0.0
7.3125000000e+00 1.8570429135e-01 0.0
7.5937500000e+00 3.0318131545e-01 0.0
7.8750000000e+00 4.9147731772e-01 0.0
8.1562500000e+00 7.0273930254e-01 0.0
8.4375000000e+00 9.2963914074e-01 0.0
8.7187500000e+00 1.0933340277e+00 0.0
9.0000000000e+00 1.1145250000e+00 0.0
0.0000000000e+00 1.2077762062e+00 0.0
2.8125000000e-01 1.1876345004e+00 0.0
5.6250000000e-01 1.0320449316e+00 0.0
8.4375000000e-01 8.1637999156e-01 0.0
1.1250000000e+00 6.1557859980e-01 0.0
1.4062500000e+00 4.3660603476e-01 0.0
1.6875000000e+00 3.2494586098e-01 0.0
1.9687500000e+00 2.9432288862e-01 0.0
2.2500000000e+00 2.9432288862e-01 0.0
2.5312500000e+00 2.9432288862e-01 0.0
2.8125000000e+00 2.9432288862e-01 0.0
3.0937500000e+00 2.9432288862e-01 0.0
3.3750000000e+00 2.9432288862e-01 0.0
3.6562500000e+00 2.9432288862e-01 0.0
3.9375000000e+00 2.9432288862e-01 0.0
4.2187500000e+00 2.9432288862e-01 0.0
4.5000000000e+00 2.9432288862e-01 0.0
4.7812500000e+00 2.9432288862e-01 0.0
5.0625000000e+00 2.9432288862e-01 0.0
5.3437500000e+00 2.9432288862e-01 0.0
5.6250000000e+00 2.9432288862e-01 0.0
5.9062500000e+00 2.9432288862e-01 0.0
6.1875000000e+00 2.9432288862e-01 0.0
6.4687500000e+00 2.9432288862e-01 0.0
6.7500000000e+00 2.9432288862e-01 0.0
7.0312500000e+00 2.9432288862e-01 0.0
7.3125000000e+00 3.2494586098e-01 0.0
7.5937500000e+00 4.3660603476e-01 0.0
7.8750000000e+00 6.1557859980e-01 0.0
8.1562500000e+00 8.1637999156e-01 0.0
8.4375000000e+00 1.0320449316e+00 0.0
8.7187500000e+00 1.1876345004e+00 0.0
9.0000000000e+00 1.2077762062e+00 0.0
0.0000000000e+00 1.3193302628e+00 0.0
2.8125000000e-01 1.3004437680e+00 0.0
5.6250000000e-01 1.1545503861e+00 0.0
8.4375000000e-01 9.5232547010e-01 0.0
1.1250000000e+00 7.6403782092e-01 0.0
1.4062500000e+00 5.9621864774e-01 0.0
1.6875000000e+00 4.9151702468e-01 0.0
1.9687500000e+00 4.6280244544e-01 0.0
2.2500000000e+00 4.6280244544e-01 0.0
2.5312500000e+00 4.6280244544e-01 0.0
2.8125000000e+00 4.6280244544e-01 0.0
3.0937500000e+00 4.6280244544e-01 0.0
3.3750000000e+00 4.6280244544e-01 0.0
3.6562500000e+00 4.6280244544e-01 0.0
3.9375000000e+00 4.6280244544e-01 0.0
4.2187500000e+00 4.6280244544e-01 0.0
4.5000000000e+00 4.6280244544e-01 0.0
4.7812500000e+00 4.6280244544e-01 0.0
5.0625000000e+00 4.6280244544e-01 0.0
5.3437500000e+00 4.6280244544e-01 0.0
5.6250000000e+00 4.6280244544e-01 0.0
5.9062500000e+00 4.6280244544e-01 0.0
6.1875000000e+00 4.6280244544e-01 0.0
6.4687500000e+00 4.6280244544e-01 0.0
6.7500000000e+00 4.6280244544e-01 0.0
7.0312500000e+00 4.6280244544e-01 0.0
7.3125000000e+00 4.9151702468e-01 0.0
7.5937500000e+00 5.9621864774e-01 0.0
7.8750000000e+00 7.6403782092e-01 0.0
8.1562500000e+00 9.5232547010e-01 0.0
8.4375000000e+00 1.1545503861e+00 0.0
8.7187500000e+00 1.3004437680e+00 0.0
9.0000000000e+00 1.3193302628e+00 0.0
0.0000000000e+00 1.4495132424e+00 0.0
2.8125000000e-01 1.4320915722e+00 0.0
5.6250000000e-01 1.2975135877e+00 0.0
8.4375000000e-01 1.1109731070e+00 0.0
1.1250000000e+00 9.3728892765e-01 0.0
1.4062500000e+00 7.8248570235e-01 0.0
1.6875000000e+00 6.8590467030e-01 0.0
1.9687500000e+00 6.5941717548e-01 0.0
2.2500000000e+00 6.5941717548e-01 0.0
2.5312500000e+00 6.5941717548e-01 0.0
2.8125000000e+00 6.5941717548e-01 0.0
3.0937500000e+00 6.5941717548e-01 0.0
3.3750000000e+00 6.5941717548e-01 0.0
3.6562500000e+00 6.5941717548e-01 0.0
3.9375000000e+00 6.5941717548e-01 0.0
4.2187500000e+00 6.5941717548e-01 0.0
4.5000000000e+00 6.5941717548e-01 0.0
4.7812500000e+00 6.5941717548e-01 0.0
5.0625000000e+00 6.5941717548e-01 0.0
5.3437500000e+00 6.5941717548e-01 0.0
5.6250000000e+00 6.5941717548e-01 0.0
5.9062500000e+00 6.5941717548e-01 0.0
6.1875000000e+00 6.5941717548e-01 0.0
6.4687500000e+00 6.5941717548e-01 0.0
6.7500000000e+00 6.5941717548e-01 0.0
7.0312500000e+00 6.5941717548e-01 0.0
7.3125000000e+00 6.8590467030e-01 0.0
7.5937500000e+00 7.8248570235e-01 0.0
7.8750000000e+00 9.3728892765e-01 0.0
8.1562500000e+00 1.1109731070e+00 0.0
8.4375000000e+00 1.2975135877e+00 0.0
8.7187500000e+00 1.4320915722e+00 0.0
9.0000000000e+00 1.4495132424e+00 0.0
0.0000000000e+00 1.5971143014e+00 0.0
2.8125000000e-01 1.5813534446e+00 0.0
5.6250000000e-01 1.4596048228e+00 0.0
8.4375000000e-01 1.2908473063e+00 0.0
1.1250000000e+00 1.1337204957e+00 0.0
1.4062500000e+00 9.9367471176e-01 0.0
1.6875000000e+00 9.0630078063e-01 0.0
1.9687500000e+00 8.8233834724e-01 0.0
2.2500000000e+00 8.8233834724e-01 0.0
2.5312500000e+00 8.8233834724e-01 0.0
2.8125000000e+00 8.8233834724e-01 0.0
3.0937500000e+00 8.8233834724e-01 0.0
3.3750000000e+00 8.8233834724e-01 0.0
3.6562500000e+00 8.8233834724e-01 0.0
3.9375000000e+00 8.8233834724e-01 0.0
4.2187500000e+00 8.8233834724e-01 0.0
4.5000000000e+00 8.8233834724e-01 0.0
4.7812500000e+00 8.8233834724e-01 0.0
5.0625000000e+00 8.8233834724e-01 0.0
5.3437500000e+00 8.8233834724e-01 0.0
5.6250000000e+00 8.8233834724e-01 0.0
5.9062500000e+00 8.8233834724e-01 0.0
6.1875000000e+00 8.8233834724e-01 0.0
6.4687500000e+00 8.8233834724e-01 0.0
6.7500000000e+00 8.8233834724e-01 0.0
7.0312500000e+00 8.8233834724e-01 0.0
7.3125000000e+00 9.0630078063e-01 0.0
7.5937500000e+00 9.9367471176e-01 0.0
7.8750000000e+00 1.1337204957e+00 0.0
8.1562500000e+00 1.2908473063e+00 0.0
8.4375000000e+00 1.4596048228e+00 0.0
8.7187500000e+00 1.5813534446e+00 0.0
9.0000000000e+00 1.5971143014e+00 0.0
0.0000000000e+00 1.7590868131e+00 0.0
2.8125000000e-01 1.7451484779e+00 0.0
5.6250000000e-01 1.6374783736e+00 0.0
8.4375000000e-01 1.4882352927e+00 0.0
1.1250000000e+00 1.3492779901e+00 0.0
1.4062500000e+00 1.2254265334e+00 0.0
1.6875000000e+00 1.1481561697e+00 0.0
1.9687500000e+00 1.1269646551e+00 0.0
2.2500000000e+00 1.1269646551e+00 0.0
2.5312500000e+00 1.1269646551e+00 0.0
2.8125000000e+00 1.1269646551e+00 0.0
3.0937500000e+00 1.1269646551e+00 0.0
3.3750000000e+00 1.1269646551e+00 0.0
3.6562500000e+00 1.1269646551e+00 0.0
3.9375000000e+00 1.1269646551e+00 0.0
4.2187500000e+00 1.1269646551e+00 0.0
4.5000000000e+00 1.1269646551e+00 0.0
4.7812500000e+00 1.1269646551e+00 0.0
5.0625000000e+00 1.1269646551e+00 0.0
5.3437500000e+00 1.1269646551e+00 0.0
5.6250000000e+00 1.1269646551e+00 0.0
5.9062500000e+00 1.1269646551e+00 0.0
6.1875000000e+00 1.1269646551e+00 0.0
6.4687500000e+00 1.1269646551e+00 0.0
6.7500000000e+00 1.1269646551e+00 0.0
7.0312500000e+00 1.1269646551e+00 0.0
7.3125000000e+00 1.1481561697e+00 0.0
7.5937500000e+00 1.2254265334e+00 0.0
7.8750000000e+00 1.3492779901e+00 0.0
8.1562500000e+00 1.4882352927e+00 0.0
8.4375000000e+00 1.6374783736e+00 0.0
8.7187500000e+00 1.7451484779e+00 0.0
9.0000000000e+00 1.7590868131e+00 0.0
0.0000000000e+00 1.9305824874e+00 0.0
2.8125000000e-01 1.9185738289e+00 0.0
5.6250000000e-01 1.8258099875e+00 0.0
8.4375000000e-01 1.6972286922e+00 0.0
1.1250000000e+00 1.5775091725e+00 0.0
1.4062500000e+00 1.4708041873e+00 0.0
1.6875000000e+00 1.4042314297e+00 0.0
1.9687500000e+00 1.3859737498e+00 0.0
2.2500000000e+00 1.3859737498e+00 0.0
2.5312500000e+00 1.3859737498e+00 0.0
2.8125000000e+00 1.3859737498e+00 0.0
3.0937500000e+00 1.3859737498e+00 0.0
3.3750000000e+00 1.3859737498e+00 0.0
3.6562500000e+00 1.3859737498e+00 0.0
3.9375000000e+00 1.3859737498e+00 0.0
4.2187500000e+00 1.3859737498e+00 0.0
4.5000000000e+00 1.3859737498e+00 0.0
4.7812500000e+00 1.3859737498e+00 0.0
5.0625000000e+00 1.3859737498e+00 0.0
5.3437500000e+00 1.3859737498e+00 0.0
5.6250000000e+00 1.3859737498e+00 0.0
5.9062500000e+00 1.3859737498e+00 0.0
6.1875000000e+00 1.3859737498e+00 0.0
6.4687500000e+00 1.3859737498e+00 0.0
6.7500000000e+00 1.3859737498e+00 0.0
7.0312500000e+00 1.3859737498e+00 0.0
7.3125000000e+00 1.4042314297e+00 0.0
7.5937500000e+00 1.4708041873e+00 0.0
[...]
POINT_DATA 528

SCALARS Density double 1
LOOKUP_TABLE default
5.3816747815e-01
5.4410422881e-01
5.4312235805e-01
5.3887201341e-01
5.2439383122e-01
5.0703892268e-01
5.5114845677e-01
5.5524307239e-01
5.6579999828e-01
5.4542711564e-01
5.0785719586e-01
5.0510941727e-01
5.2904748805e-01
6.0320793103e-01
5.8846331581e-01
5.5713307268e-01
4.8129043392e-01
4.7556819597e-01
4.3235791627e-01
4.1804295531e-01
4.1641902256e-01
4.2120508765e-01
4.3894706143e-01
4.4420811603e-01
4.6791617209e-01
4.7187563616e-01
4.7703467431e-01
4.4418606321e-01
3.9562569493e-01
3.8243851957e-01
3.8185046845e-01
4.1415593388e-01
4.0537121555e-01
5.1430659502e-01
5.2858830326e-01
5.5164017450e-01
5.5861358232e-01
5.3815923667e-01
5.4603599043e-01
5.6611225828e-01
5.9002734171e-01
5.6310593883e-01
5.1158790905e-01
4.8744381046e-01
4.7295277295e-01
6.0385681945e-01
6.0834671827e-01
6.1734989185e-01
5.1224583969e-01
4.7087038408e-01
4.5601329904e-01
4.2778249607e-01
4.0197066954e-01
3.8170317897e-01
3.7885393280e-01
3.9866475931e-01
4.4050050837e-01
4.5482128821e-01
4.6866316583e-01
4.5353585888e-01
4.3821961910e-01
4.1976755491e-01
3.8709441206e-01
3.8448701398e-01
3.9076976735e-01
3.8610368546e-01
5.3921714777e-01
5.7552046815e-01
5.7435381384e-01
5.6414902788e-01
5.5946762021e-01
5.7524907624e-01
6.0093207417e-01
5.7665309951e-01
5.2325616332e-01
4.8342194097e-01
4.8964766300e-01
5.9522168455e-01
6.1947920432e-01
6.1116782829e-01
5.1471109472e-01
4.8186063162e-01
4.5817423612e-01
4.2551026199e-01
4.0209301719e-01
3.7237357253e-01
3.7087755595e-01
3.9288681967e-01
4.3020031233e-01
4.5368514702e-01
4.6354811869e-01
4.5589066608e-01
4.5252806789e-01
4.3528546285e-01
4.0821580575e-01
3.8865985200e-01
3.7852134132e-01
3.7628431145e-01
3.9688691281e-01
5.6336976233e-01
5.8061640935e-01
5.7641474974e-01
5.6695783537e-01
5.7806698640e-01
6.0098252267e-01
5.7640907770e-01
5.1882326979e-01
4.7904070285e-01
4.8210623604e-01
6.0103169683e-01
6.1241658282e-01
6.1756842725e-01
5.0742406381e-01
4.8491514201e-01
4.6297582015e-01
4.1664609073e-01
4.0273843538e-01
3.6657047985e-01
3.6921227556e-01
3.9501536538e-01
4.2953694301e-01
4.5525078355e-01
4.6387096408e-01
4.5783898711e-01
4.5694343780e-01
4.4194325550e-01
4.0728893209e-01
3.8679137761e-01
3.7336244223e-01
3.7297965362e-01
3.9635350613e-01
4.4915648775e-01
5.8459131665e-01
5.7519439245e-01
5.6308300695e-01
5.7877735905e-01
5.9943093367e-01
5.7532214232e-01
5.1481173393e-01
4.7707684805e-01
4.7885966800e-01
6.0839163466e-01
6.1302332830e-01
6.2640310423e-01
4.9931873738e-01
4.8488411442e-01
4.6246652541e-01
4.1313643470e-01
4.0083212309e-01
3.6248313119e-01
3.6860556069e-01
3.9828838249e-01
4.3244966117e-01
4.5678361444e-01
4.6586816781e-01
4.5916142272e-01
4.5945013450e-01
4.4355807176e-01
4.0713424782e-01
3.7884385353e-01
3.7025367912e-01
3.7240652610e-01
3.9944614595e-01
4.6053545341e-01
4.6738126490e-01
5.7727701181e-01
5.5920155595e-01
5.8018361383e-01
5.9960322506e-01
5.7441244626e-01
5.1211249133e-01
4.7629433249e-01
4.7700421471e-01
6.1152675259e-01
6.1541901529e-01
6.2707587442e-01
4.9668248707e-01
4.8191390059e-01
4.6467773212e-01
4.1213341809e-01
3.9752590201e-01
3.6122527819e-01
3.6857903365e-01
3.9992569719e-01
4.3405695383e-01
4.5648709955e-01
4.6627311268e-01
4.5978255178e-01
4.6074931059e-01
4.4238574893e-01
4.0530021673e-01
3.7361953425e-01
3.6874147271e-01
3.7320475036e-01
3.9543831511e-01
4.6329614109e-01
4.7008406877e-01
4.8102117521e-01
5.5736376826e-01
5.7945734190e-01
5.9986990860e-01
5.7429791358e-01
5.1101116555e-01
4.7628891305e-01
4.7411105459e-01
6.1340493051e-01
6.1676408403e-01
6.2703477535e-01
4.9532390688e-01
4.7960957291e-01
4.6618229327e-01
4.1160553723e-01
3.9476477005e-01
3.6098280454e-01
3.6816490658e-01
4.0097067024e-01
4.3543271343e-01
4.5620972190e-01
4.6699490269e-01
4.6013548072e-01
4.6189134719e-01
4.4147837824e-01
4.0347907261e-01
3.7104673310e-01
3.6745455144e-01
3.7410595704e-01
3.9297881166e-01
4.6692571274e-01
4.7266772842e-01
4.8091026957e-01
4.9909462895e-01
5.7852289790e-01
6.0020500618e-01
5.7388795907e-01
5.1141731713e-01
4.7722884570e-01
4.7296185058e-01
6.1423063759e-01
6.1716035840e-01
6.2715275025e-01
4.9472484472e-01
4.7813616178e-01
4.6700904702e-01
4.1174289886e-01
3.9285117632e-01
3.6119265341e-01
3.6790428208e-01
4.0145141871e-01
4.3638288496e-01
4.5585656984e-01
4.6752681295e-01
4.5997317062e-01
4.6273414412e-01
4.4092993898e-01
4.0247733176e-01
3.7065085291e-01
3.6667473271e-01
3.7499722427e-01
3.9027640371e-01
4.6890171903e-01
4.7397049061e-01
4.8050860882e-01
5.0157949609e-01
4.9432889518e-01
6.0024136477e-01
5.7421151377e-01
5.1206025457e-01
4.7968549111e-01
4.7278554415e-01
6.1448041631e-01
6.1597685086e-01
6.2742651423e-01
4.9484059242e-01
4.7702616424e-01
4.6719109797e-01
4.1234101049e-01
3.9179962561e-01
3.6176804991e-01
3.6775732188e-01
4.0131060794e-01
4.3704876093e-01
4.5548257096e-01
4.6789757953e-01
4.5935193345e-01
4.6325855421e-01
4.4077205601e-01
4.0216485948e-01
3.7073002973e-01
3.6628706655e-01
3.7562011098e-01
3.8821211745e-01
4.6926163248e-01
4.7507546803e-01
4.7896573137e-01
5.0367633828e-01
4.9324513054e-01
4.9228772513e-01
5.7519011167e-01
5.1537478358e-01
4.8392452784e-01
4.7240808893e-01
6.1400306578e-01
6.1348350767e-01
6.2994761349e-01
4.9592479181e-01
4.7607878796e-01
4.6681340804e-01
4.1343365084e-01
3.9157358024e-01
3.6267558160e-01
3.6769189111e-01
4.0059015730e-01
4.3745847079e-01
4.5505889124e-01
4.6813498379e-01
4.5826813053e-01
4.6348233175e-01
4.4104023486e-01
4.0251853831e-01
3.7122354668e-01
3.6575374503e-01
3.7610604216e-01
3.8734192889e-01
4.6858817705e-01
4.7610128678e-01
4.7757587311e-01
5.0472199950e-01
4.9254089873e-01
4.9060566438e-01
4.2025797349e-01
5.1846757992e-01
4.8859057610e-01
4.7392220743e-01
6.1179615413e-01
6.0998606134e-01
6.3120989384e-01
5.0109238657e-01
4.7505150756e-01
4.6588999896e-01
4.1511732932e-01
3.9211763647e-01
3.6400153281e-01
3.6771201353e-01
3.9937168165e-01
4.3755448417e-01
4.5465235119e-01
4.6820689724e-01
4.5668374723e-01
4.6341443416e-01
4.4171832651e-01
4.0349889787e-01
3.7222111591e-01
3.6500691538e-01
3.7669722982e-01
3.8731014905e-01
4.6724043324e-01
4.7704458941e-01
4.7612514004e-01
5.0604722384e-01
4.9064950671e-01
4.9048442247e-01
4.1982055015e-01
4.1206288808e-01
4.9448076984e-01
4.7944646901e-01
6.0597090820e-01
6.0667684538e-01
6.2940903722e-01
5.0720273205e-01
4.7373190885e-01
4.6445099507e-01
4.1720932542e-01
3.9339962675e-01
3.6583489677e-01
3.6766032282e-01
3.9769873980e-01
4.3713979859e-01
4.5453944284e-01
4.6745990961e-01
4.5471649156e-01
4.6276586738e-01
4.4261732412e-01
4.0511505749e-01
3.7362960833e-01
3.6407385633e-01
3.7732634735e-01
3.8716183015e-01
4.6543889554e-01
4.7761084717e-01
4.7571298710e-01
5.0596626932e-01
4.8862337328e-01
4.9214914700e-01
4.1939554847e-01
4.1236941595e-01
3.9064862563e-01
4.8796451893e-01
5.8919204793e-01
6.0686517618e-01
6.2101506532e-01
5.1244289941e-01
4.7590948038e-01
4.6138884013e-01
4.2052880688e-01
3.9578919487e-01
3.6760673195e-01
3.6798515081e-01
3.9584462144e-01
4.3591877698e-01
4.5438010419e-01
4.6496243631e-01
4.5371520724e-01
4.6063939633e-01
4.4491915702e-01
4.0723357462e-01
3.7486585405e-01
3.6538156664e-01
3.7545109511e-01
3.8924529685e-01
4.6262065819e-01
4.7716821780e-01
4.7727501901e-01
5.0054681097e-01
4.9279450941e-01
4.8613681096e-01
4.2584312490e-01
4.1026837077e-01
3.9351657956e-01
3.9085196111e-01
5.8061094720e-01
6.2446919230e-01
6.0622172543e-01
5.2294280604e-01
4.8030080707e-01
4.5617979091e-01
4.2353057301e-01
3.9755253674e-01
3.6696630517e-01
3.6861558805e-01
3.9362918758e-01
4.3197853107e-01
4.5497270613e-01
4.6154667636e-01
4.5668990001e-01
4.5720955969e-01
4.4732997276e-01
4.0825311115e-01
3.7610052471e-01
3.6524763805e-01
3.7086212243e-01
3.9343402988e-01
4.5727048594e-01
4.7571664894e-01
4.7975873927e-01
4.9623569100e-01
4.9874294325e-01
4.7933682858e-01
4.3560993098e-01
4.0542892781e-01
3.9340611397e-01
3.9222283107e-01
4.2525494120e-01
6.3834103437e-01
6.0924595576e-01
5.3123291668e-01
4.9401322838e-01
4.5501144634e-01
4.1947252712e-01
3.9991621617e-01
3.5192291082e-01
3.5971593561e-01
3.8379579450e-01
4.2087920548e-01
4.5283614443e-01
4.5851492525e-01
4.5802533854e-01
4.5467427742e-01
4.4702900408e-01
4.0533828813e-01
3.6782771462e-01
3.5830841951e-01
3.5978687197e-01
3.8500383950e-01
4.5672632472e-01
4.6662747407e-01
4.8178935276e-01
4.9458987369e-01
5.0141970936e-01
4.8611642141e-01
4.2813047441e-01
4.0832917308e-01
3.7973804315e-01
3.8447632565e-01
4.1643934836e-01
4.5265700438e-01
6.3580970996e-01
5.5874071683e-01
5.1331498678e-01
4.7266253603e-01
4.5105777942e-01
3.9586518721e-01
3.3433715487e-01
3.2494792417e-01
3.4630347423e-01
4.0159779860e-01
4.3572008556e-01
4.4575934922e-01
4.6061573136e-01
4.6565831682e-01
4.7484168328e-01
4.1844343855e-01
3.5680268346e-01
3.3112815355e-01
3.3533991224e-01
3.5596956187e-01
4.2255719841e-01
4.6355465609e-01
4.7323247003e-01
4.8406715876e-01
5.0275821441e-01
5.0478087420e-01
4.5950955849e-01
3.9664078669e-01
3.6560498513e-01
3.6476746766e-01
3.9592551685e-01
4.3757147331e-01
4.5972942774e-01

VECTORS Velocity double
-4.2879664278e-02 8.9000372675e-02 0.0
-5.0578900195e-02 1.1335970211e-01 0.0
-2.5843692623e-02 7.6824086440e-03 0.0
2.7630289709e-03 -3.6182298166e-02 0.0
-1.6216947740e-02 9.0602291606e-03 0.0
-3.2842798221e-04 -2.9535835423e-02 0.0
-6.2047982877e-02 8.5657381135e-02 0.0
3.0923330446e-03 1.0479997187e-02 0.0
-2.6743344601e-02 7.0744865003e-02 0.0
-3.4774443138e-02 4.9157368905e-02 0.0
-3.4126577669e-02 6.7284080469e-02 0.0
-5.8856827961e-02 7.2763181411e-02 0.0
-5.7465023469e-02 1.2030413620e-01 0.0
1.4280404233e-01 -3.5038815564e-02 0.0
1.4237487061e-01 3.0907516801e-03 0.0
1.5039875219e-01 -2.1470149404e-02 0.0
-3.2111773679e-02 -3.7964790991e-03 0.0
-3.2196959120e-02 -2.5815328779e-03 0.0
-3.6399741483e-02 2.8109529644e-03 0.0
-6.6504793347e-02 -1.3224634399e-02 0.0
-4.4253359450e-02 3.9509394031e-02 0.0
-3.6295466404e-02 2.0657879647e-02 0.0
-2.9700838421e-02 -4.3914198467e-03 0.0
4.3188168010e-03 1.6128766859e-02 0.0
6.4375057763e-03 2.0967697787e-02 0.0
8.2518336830e-03 5.0243030014e-03 0.0
1.2018439572e-03 1.7384250703e-02 0.0
1.3763455740e-02 5.8534994224e-04 0.0
2.6020521014e-02 -7.9332139792e-03 0.0
1.4794134035e-01 1.4254209901e-01 0.0
1.6952157117e-01 1.8233842978e-01 0.0
-5.3395303173e-02 -6.7180538742e-02 0.0
-1.6593886050e-02 9.8447940951e-02 0.0
-2.2026632102e-03 -8.1000250536e-02 0.0
1.6824332450e-02 -7.9521393590e-02 0.0
2.7470985818e-02 -2.1935881562e-02 0.0
2.7007826102e-02 -2.3332364798e-04 0.0
-3.1076276663e-02 -3.7021698818e-02 0.0
-4.4985008445e-04 8.6364966324e-04 0.0
-4.5879204916e-03 1.2547799735e-02 0.0
6.0762535726e-03 5.8429972130e-02 0.0
-1.4082840952e-02 3.4423077286e-02 0.0
-1.1899700103e-02 1.1129571232e-02 0.0
-2.5463065951e-02 -8.9255215749e-03 0.0
-3.8344693395e-02 -8.8005590875e-02 0.0
1.3157090315e-01 9.4919608913e-03 0.0
1.4004284905e-01 4.1105283346e-02 0.0
1.5569455257e-01 8.8026065242e-02 0.0
-1.2768053431e-02 5.4792286908e-02 0.0
-3.4704741433e-02 -1.6116089641e-02 0.0
-3.0391894081e-02 3.5566858375e-02 0.0
-7.7600447058e-02 2.9838735380e-02 0.0
-6.9212422141e-02 -2.2667542108e-02 0.0
-6.6220334901e-02 -8.8796925942e-02 0.0
-4.7701999096e-02 -1.2779886149e-01 0.0
-6.2392351940e-03 -8.5610308110e-02 0.0
-5.2200712269e-03 -3.8849506932e-02 0.0
-7.0158815825e-03 -3.9484389804e-02 0.0
9.1647748463e-04 -1.6188979642e-03 0.0
1.7415551555e-03 -3.8312739890e-04 0.0
1.5104655981e-02 7.9690772203e-03 0.0
-1.5631917981e-02 4.8412029876e-02 0.0
-4.1413240560e-02 -6.8280211457e-02 0.0
-4.8922947919e-02 -1.1376237511e-01 0.0
-3.4438288210e-02 -2.5189329396e-02 0.0
-5.2769271753e-02 -9.2517163848e-02 0.0
2.2957655846e-02 -3.3086932938e-02 0.0
1.5299197001e-02 1.0025222976e-03 0.0
8.9452519292e-03 1.3783625215e-02 0.0
-7.9357832593e-03 1.6219814391e-02 0.0
-7.0520560614e-03 2.6210555148e-02 0.0
-7.4514441925e-03 3.5994560719e-02 0.0
6.3925207341e-03 6.6050274401e-02 0.0
-1.2014706292e-02 5.4342955274e-02 0.0
-1.2631888075e-02 2.8286946946e-02 0.0
-2.8755258471e-02 -5.8663682681e-03 0.0
-3.0080851290e-02 -4.6001353281e-02 0.0
1.3201516549e-01 -2.4513398648e-03 0.0
1.4405535017e-01 4.8993661593e-02 0.0
1.5101523890e-01 7.0766323932e-02 0.0
-1.2314135006e-02 6.2382271573e-02 0.0
-3.5037333822e-02 -3.5788215957e-03 0.0
-3.2891475115e-02 2.3334491092e-02 0.0
-7.0691010180e-02 4.2552975242e-02 0.0
-7.4321987270e-02 -3.0354152261e-02 0.0
-6.4170945364e-02 -9.4846187483e-02 0.0
-5.2937932195e-02 -1.3963804770e-01 0.0
-4.9931370641e-03 -1.0137382046e-01 0.0
-5.5315203103e-03 -5.2228560386e-02 0.0
-6.4487010847e-03 -3.8507455807e-02 0.0
-1.5646380619e-04 -1.7655591619e-02 0.0
4.1375823908e-03 -2.3359188092e-03 0.0
2.3324046259e-02 2.8008107557e-02 0.0
-1.5408229060e-02 5.7644595110e-02 0.0
-4.9689484520e-02 -8.3402446905e-03 0.0
-5.2216286682e-02 -8.0342718975e-02 0.0
-4.0198639694e-02 -7.7436265664e-02 0.0
-5.6272845509e-02 -8.0356472080e-02 0.0
-3.0574664498e-02 -9.7863229614e-02 0.0
2.0823104159e-02 -4.0495520533e-03 0.0
1.0290736854e-02 2.2644587615e-02 0.0
-6.3866988575e-03 2.6648756188e-02 0.0
-8.8380740791e-03 3.0679791682e-02 0.0
-8.5369036824e-03 3.6723819300e-02 0.0
1.1055113018e-02 6.0221244559e-02 0.0
-9.2396428318e-03 5.5198463412e-02 0.0
-1.4918297591e-02 1.9261675553e-02 0.0
-2.7391049058e-02 -1.2548755229e-02 0.0
-2.9955713317e-02 -3.9294689301e-02 0.0
1.3239112011e-01 -6.1387122981e-03 0.0
1.4869335263e-01 6.1858162779e-02 0.0
1.4625350522e-01 6.4021475347e-02 0.0
-1.2239548879e-02 6.2732279175e-02 0.0
-3.7581859456e-02 -1.2030946496e-02 0.0
-3.2601850014e-02 1.5848957117e-02 0.0
-6.7290798304e-02 5.2079381194e-02 0.0
-7.8789138422e-02 -4.6588733716e-02 0.0
-6.0205791145e-02 -9.4665770406e-02 0.0
-5.8188721096e-02 -1.4197450014e-01 0.0
-2.7814443655e-03 -9.7398649264e-02 0.0
-6.3088505304e-03 -4.0871293720e-02 0.0
-6.4446531132e-03 -3.5341380211e-02 0.0
-2.9248479741e-04 -2.0765615372e-02 0.0
4.6406751279e-03 1.1913246879e-03 0.0
2.6331502061e-02 2.8024938382e-02 0.0
-9.1545101449e-03 5.3554800951e-02 0.0
-4.1250191252e-02 -3.5913057897e-03 0.0
-5.1775844570e-02 -8.1976765329e-02 0.0
-4.1074220028e-02 -8.7865594632e-02 0.0
-5.0316027986e-02 -7.6674163245e-02 0.0
-2.4223271861e-02 -9.4434004741e-02 0.0
-2.8137972312e-02 -6.2068222577e-02 0.0
1.0929513810e-02 1.5133804759e-02 0.0
-6.0382019342e-03 2.7919382062e-02 0.0
-9.9841192726e-03 3.3041447097e-02 0.0
-7.6697913569e-03 4.0724735953e-02 0.0
1.1581931374e-02 6.2586440527e-02 0.0
-8.0492530174e-03 4.9648416432e-02 0.0
-1.1679594908e-02 1.5855396045e-02 0.0
-2.7619329176e-02 -1.7079175681e-02 0.0
-2.9849643466e-02 -3.7694527262e-02 0.0
1.3371370661e-01 2.7432658292e-03 0.0
1.4789181365e-01 5.7794839460e-02 0.0
1.4463046442e-01 6.5680021299e-02 0.0
-1.5890618958e-02 5.0526736323e-02 0.0
-3.6726909918e-02 -1.0117824543e-02 0.0
-3.2848342651e-02 1.0993677749e-02 0.0
-6.6818659184e-02 4.9682807354e-02 0.0
-7.8188940044e-02 -4.7918730414e-02 0.0
-6.2098866382e-02 -1.0096741679e-01 0.0
-5.8414261257e-02 -1.3955757591e-01 0.0
-3.3857988215e-03 -9.5701120319e-02 0.0
-5.7832378009e-03 -3.8529521784e-02 0.0
-6.5566480405e-03 -3.5211752033e-02 0.0
-2.5024575963e-04 -2.0757799286e-02 0.0
4.4075209297e-03 -1.6645644595e-03 0.0
2.7070341422e-02 3.3406362501e-02 0.0
-2.1707693137e-03 4.7839897473e-02 0.0
-4.1883095519e-02 -5.6057580583e-03 0.0
-4.7647235243e-02 -8.6856701379e-02 0.0
-4.2280019072e-02 -9.6669959000e-02 0.0
-5.2945603021e-02 -7.9072605098e-02 0.0
-1.9242886730e-02 -8.6020834701e-02 0.0
-2.2020812841e-02 -5.4496557383e-02 0.0
-3.5209414031e-02 -1.6127087101e-02 0.0
-4.6431176341e-03 3.0000657775e-02 0.0
-1.4868584252e-02 3.2211491740e-02 0.0
-6.3207210623e-03 4.2449604707e-02 0.0
1.0745114108e-02 6.4154316859e-02 0.0
-7.5057940241e-03 4.7964758270e-02 0.0
-9.3201303621e-03 1.5079597625e-02 0.0
-2.6614441973e-02 -1.9494006860e-02 0.0
-2.9962296783e-02 -3.5434333409e-02 0.0
1.3508774889e-01 9.4178490264e-03 0.0
1.4667792675e-01 5.6179406980e-02 0.0
1.4488596756e-01 6.7114561005e-02 0.0
-1.8531373723e-02 4.3951801807e-02 0.0
-3.6178434288e-02 -1.3496991298e-02 0.0
-3.2840225182e-02 9.6025872509e-03 0.0
-6.6418146927e-02 4.6428037508e-02 0.0
-7.7903147164e-02 -5.1066047894e-02 0.0
-6.3396353647e-02 -1.0431414498e-01 0.0
-5.8328162955e-02 -1.3761790376e-01 0.0
-3.9279273084e-03 -9.3363914121e-02 0.0
-5.3998603682e-03 -3.5768952035e-02 0.0
-6.6395169483e-03 -3.3913863703e-02 0.0
-2.1827207518e-04 -2.0251875108e-02 0.0
4.2185765080e-03 -2.9045315126e-03 0.0
2.7591762142e-02 3.7048228125e-02 0.0
-1.5192037420e-03 4.5743480508e-02 0.0
-4.2281435046e-02 -1.0568747343e-02 0.0
-4.4403547290e-02 -8.8266574658e-02 0.0
-4.3730386615e-02 -1.0139819182e-01 0.0
-5.4339780018e-02 -7.6639931834e-02 0.0
-2.2850089970e-02 -7.3577886790e-02 0.0
-1.5077824942e-02 -4.7908503701e-02 0.0
-3.6622494142e-02 -1.1230621487e-02 0.0
-3.3398067570e-02 -1.7354723994e-02 0.0
-1.6893175848e-02 3.0293203746e-02 0.0
-2.1013581680e-03 4.5309510359e-02 0.0
9.5458561143e-03 6.5125557433e-02 0.0
-7.4543198256e-03 4.7775926834e-02 0.0
-8.7023274285e-03 1.4894012141e-02 0.0
-2.5839557780e-02 -2.0472518820e-02 0.0
-3.8135368027e-02 -3.6320453166e-02 0.0
1.3585054815e-01 1.4184414664e-02 0.0
1.4577365648e-01 5.4279547384e-02 0.0
1.4531503381e-01 6.8388625033e-02 0.0
-2.0404991600e-02 3.8263088983e-02 0.0
-3.5723321740e-02 -1.5259242281e-02 0.0
-3.2797519290e-02 1.0108952310e-02 0.0
-6.6340867406e-02 4.3457189346e-02 0.0
-7.7592205122e-02 -5.2867493757e-02 0.0
-6.4358709276e-02 -1.0600804114e-01 0.0
-5.8156408146e-02 -1.3661054189e-01 0.0
-4.3714323341e-03 -9.1580783546e-02 0.0
-5.1308640108e-03 -3.4295438556e-02 0.0
-6.6903063679e-03 -3.3281209167e-02 0.0
-1.7424920408e-04 -1.9644426876e-02 0.0
4.0643792150e-03 -3.8894233463e-03 0.0
2.7881774594e-02 3.9398887995e-02 0.0
-1.0474836699e-03 4.4375495834e-02 0.0
-4.3198171348e-02 -1.5392448325e-02 0.0
-4.2737623996e-02 -8.8916999611e-02 0.0
-4.5293668464e-02 -1.0379923935e-01 0.0
-5.4968709465e-02 -7.5625934815e-02 0.0
-2.4949951932e-02 -6.6367992686e-02 0.0
-1.9943043177e-02 -4.3483791370e-02 0.0
-3.7728665265e-02 -9.9612392688e-03 0.0
-3.1389361994e-02 -1.8152258724e-02 0.0
4.5613380373e-04 -1.2996457841e-02 0.0
-9.3228328943e-04 4.7020753825e-02 0.0
5.2552619687e-03 6.7541614752e-02 0.0
-7.4630344382e-03 4.9301984902e-02 0.0
-8.8927306124e-03 1.6536612537e-02 0.0
-2.5446249575e-02 -2.0299280333e-02 0.0
-4.4723985350e-02 -3.9109326155e-02 0.0
1.3042064671e-01 1.6002727930e-02 0.0
1.4514998423e-01 5.2373202849e-02 0.0
1.4575495513e-01 7.0090172428e-02 0.0
-2.1650117428e-02 3.4299351984e-02 0.0
-3.5358831276e-02 -1.6026672914e-02 0.0
-3.2708579032e-02 1.1277973623e-02 0.0
-6.6522784048e-02 4.0786321280e-02 0.0
-7.7189841196e-02 -5.3447424380e-02 0.0
-6.5100043540e-02 -1.0705682476e-01 0.0
-5.7831551089e-02 -1.3626433251e-01 0.0
-4.7158275146e-03 -9.0306981480e-02 0.0
-4.9628247303e-03 -3.3675711914e-02 0.0
-6.7257036121e-03 -3.3100517167e-02 0.0
-1.0565791293e-04 -1.8937013838e-02 0.0
3.9410478737e-03 -4.8847786643e-03 0.0
2.7962629974e-02 4.0804569299e-02 0.0
-6.7884771683e-04 4.3798109404e-02 0.0
-4.3810310843e-02 -1.8295450752e-02 0.0
-4.2650533628e-02 -8.9306309453e-02 0.0
-4.6304021723e-02 -1.0415599785e-01 0.0
-5.4969403652e-02 -7.4757291663e-02 0.0
-2.7721803925e-02 -6.2420038337e-02 0.0
-2.4022271229e-02 -3.9244607198e-02 0.0
-3.6338639566e-02 -9.4695212324e-03 0.0
-2.9496170411e-02 -1.8129922786e-02 0.0
2.8601871645e-03 -1.0528968316e-02 0.0
5.9190174911e-03 6.3031148479e-03 0.0
3.7013145211e-03 6.9085106565e-02 0.0
-1.1262534434e-02 5.0409286203e-02 0.0
-9.0712232658e-03 1.9848918489e-02 0.0
-2.4944691281e-02 -1.9157811859e-02 0.0
-4.7660862683e-02 -4.3592888552e-02 0.0
1.2625052715e-01 1.6516744954e-02 0.0
1.4478402969e-01 5.0763515203e-02 0.0
1.4636472874e-01 7.2286034426e-02 0.0
-2.2351847057e-02 3.1920900940e-02 0.0
-3.5108349071e-02 -1.6306981619e-02 0.0
-3.2564212250e-02 1.3138870613e-02 0.0
-6.6998870059e-02 3.8614912286e-02 0.0
-7.6663518318e-02 -5.2981540658e-02 0.0
-6.5673233507e-02 -1.0775715109e-01 0.0