# vtk DataFile Version 3.0
D2Q9 Periodic Hill Flow at timestep 20500
ASCII
DATASET STRUCTURED_GRID
DIMENSIONS 33 16 1
POINTS 528 double
0.0000000000e+00 1.0381750000e+00 0.0
2.8125000000e-01 1.0161249342e+00 0.0
5.6250000000e-01 8.4579376806e-01 0.0
8.4375000000e-01 6.0969528778e-01 0.0
1.1250000000e+00 3.8986862790e-01 0.0
1.4062500000e+00 1.9393900392e-01 0.0
1.6875000000e+00 7.1699397761e-02 0.0
1.9687500000e+00 3.8175000000e-02 0.0
2.2500000000e+00 3.8175000000e-02 0.0
2.5312500000e+00 3.8175000000e-02 0.0
2.8125000000e+00 3.8175000000e-02 0.0
3.0937500000e+00 3.8175000000e-02 0.0
3.3750000000e+00 3.8175000000e-02 0.0
3.6562500000e+00 3.8175000000e-02 0.0
3.9375000000e+00 3.8175000000e-02 0.0
4.2187500000e+00 3.8175000000e-02 0.0
4.5000000000e+00 3.8175000000e-02 0.0
4.7812500000e+00 3.8175000000e-02 0.0
5.0625000000e+00 3.8175000000e-02 0.0
5.3437500000e+00 3.8175000000e-02 0.0
5.6250000000e+00 3.8175000000e-02 0.0
5.9062500000e+00 3.8175000000e-02 0.0
6.1875000000e+00 3.8175000000e-02 0.0
6.4687500000e+00 3.8175000000e-02 0.0
6.7500000000e+00 3.8175000000e-02 0.0
7.0312500000e+00 3.8175000000e-02 0.0
7.3125000000e+00 7.1699397761e-02 0.0
7.5937500000e+00 1.9393900392e-01 0.0
7.8750000000e+00 3.8986862790e-01 0.0
8.1562500000e+00 6.0969528778e-01 0.0
8.4375000000e+00 8.4579376806e-01 0.0
8.7187500000e+00 1.0161249342e+00 0.0
9.0000000000e+00 1.0381750000e+00 0.0
0.0000000000e+00 1.1145250000e+00 0.0
2.8125000000e-01 1.0933340277e+00 0.0
5.6250000000e-01 9.2963914074e-01 0.0
8.4375000000e-01 7.0273930254e-01 0.0
1.1250000000e+00 4.9147731772e-01 0.0
1.4062500000e+00 3.0318131545e-01 0.0
1.6875000000e+00 1.8570429135e-01 0.0
1.9687500000e+00 1.5348603896e-01 0.0
2.2500000000e+00 1.5348603896e-01 0.0
2.5312500000e+00 1.5348603896e-01 0.0
2.8125000000e+00 1.5348603896e-01 0.0
3.0937500000e+00 1.5348603896e-01 0.0
3.3750000000e+00 1.5348603896e-01 0.0
3.6562500000e+00 1.5348603896e-01 0.0
3.9375000000e+00 1.5348603896e-01 0.0
4.2187500000e+00 1.5348603896e-01 0.0
4.5000000000e+00 1.5348603896e-01 0.0
4.7812500000e+00 1.5348603896e-01 0.0
5.0625000000e+00 1.5348603896e-01 0.0
5.3437500000e+00 1.5348603896e-01 0.0
5.6250000000e+00 1.5348603896e-01 0.0
5.9062500000e+00 1.5348603896e-01 0.0
6.1875000000e+00 1.5348603896e-01 0.0
6.4687500000e+00 1.5348603896e-01 0.0
6.7500000000e+00 1.5348603896e-01 0.0
7.0312500000e+00 1.5348603896e-01 0.0
7.3125000000e+00 1.8570429135e-01 0.0
7.5937500000e+00 3.0318131545e-01 0.0
7.8750000000e+00 4.9147731772e-01 0.0
8.1562500000e+00 7.0273930254e-01 0.0
8.4375000000e+00 9.2963914074e-01 0.0
8.7187500000e+00 1.0933340277e+00 0.0
9.0000000000e+00 1.1145250000e+00 0.0
0.0000000000e+00 1.2077762062e+00 0.0
2.8125000000e-01 1.1876345004e+00 0.0
5.6250000000e-01 1.0320449316e+00 0.0
8.4375000000e-01 8.1637999156e-01 0.0
1.1250000000e+00 6.1557859980e-01 0.0
1.4062500000e+00 4.3660603476e-01 0.0
1.6875000000e+00 3.2494586098e-01 0.0
1.9687500000e+00 2.9432288862e-01 0.0
2.2500000000e+00 2.9432288862e-01 0.0
2.5312500000e+00 2.9432288862e-01 0.0
2.8125000000e+00 2.9432288862e-01 0.0
3.0937500000e+00 2.9432288862e-01 0.0
3.3750000000e+00 2.9432288862e-01 0.0
3.6562500000e+00 2.9432288862e-01 0.0
3.9375000000e+00 2.9432288862e-01 0.0
4.2187500000e+00 2.9432288862e-01 0.0
4.5000000000e+00 2.9432288862e-01 0.0
4.7812500000e+00 2.9432288862e-01 0.0
5.0625000000e+00 2.9432288862e-01 0.0
5.3437500000e+00 2.9432288862e-01 0.0
5.6250000000e+00 2.9432288862e-01 0.0
5.9062500000e+00 2.9432288862e-01 0.0
6.1875000000e+00 2.9432288862e-01 0.0
6.4687500000e+00 2.9432288862e-01 0.0
6.7500000000e+00 2.9432288862e-01 0.0
7.0312500000e+00 2.9432288862e-01 0.0
7.3125000000e+00 3.2494586098e-01 0.0
7.5937500000e+00 4.3660603476e-01 0.0
7.8750000000e+00 6.1557859980e-01 0.0
8.1562500000e+00 8.1637999156e-01 0.0
8.4375000000e+00 1.0320449316e+00 0.0
8.7187500000e+00 1.1876345004e+00 0.0
9.0000000000e+00 1.2077762062e+00 0.0
0.0000000000e+00 1.3193302628e+00 0.0
2.8125000000e-01 1.3004437680e+00 0.0
5.6250000000e-01 1.1545503861e+00 0.0
8.4375000000e-01 9.5232547010e-01 0.0
1.1250000000e+00 7.6403782092e-01 0.0
1.4062500000e+00 5.9621864774e-01 0.0
1.6875000000e+00 4.9151702468e-01 0.0
1.9687500000e+00 4.6280244544e-01 0.0
2.2500000000e+00 4.6280244544e-01 0.0
2.5312500000e+00 4.6280244544e-01 0.0
2.8125000000e+00 4.6280244544e-01 0.0
3.0937500000e+00 4.6280244544e-01 0.0
3.3750000000e+00 4.6280244544e-01 0.0
3.6562500000e+00 4.6280244544e-01 0.0
3.9375000000e+00 4.6280244544e-01 0.0
4.2187500000e+00 4.6280244544e-01 0.0
4.5000000000e+00 4.6280244544e-01 0.0
4.7812500000e+00 4.6280244544e-01 0.0
5.0625000000e+00 4.6280244544e-01 0.0
5.3437500000e+00 4.6280244544e-01 0.0
5.6250000000e+00 4.6280244544e-01 0.0
5.9062500000e+00 4.6280244544e-01 0.0
6.1875000000e+00 4.6280244544e-01 0.0
6.4687500000e+00 4.6280244544e-01 0.0
6.7500000000e+00 4.6280244544e-01 0.0
7.0312500000e+00 4.6280244544e-01 0.0
7.3125000000e+00 4.9151702468e-01 0.0
7.5937500000e+00 5.9621864774e-01 0.0
7.8750000000e+00 7.6403782092e-01 0.0
8.1562500000e+00 9.5232547010e-01 0.0
8.4375000000e+00 1.1545503861e+00 0.0
8.7187500000e+00 1.3004437680e+00 0.0
9.0000000000e+00 1.3193302628e+00 0.0
0.0000000000e+00 1.4495132424e+00 0.0
2.8125000000e-01 1.4320915722e+00 0.0
5.6250000000e-01 1.2975135877e+00 0.0
8.4375000000e-01 1.1109731070e+00 0.0
1.1250000000e+00 9.3728892765e-01 0.0
1.4062500000e+00 7.8248570235e-01 0.0
1.6875000000e+00 6.8590467030e-01 0.0
1.9687500000e+00 6.5941717548e-01 0.0
2.2500000000e+00 6.5941717548e-01 0.0
2.5312500000e+00 6.5941717548e-01 0.0
2.8125000000e+00 6.5941717548e-01 0.0
3.0937500000e+00 6.5941717548e-01 0.0
3.3750000000e+00 6.5941717548e-01 0.0
3.6562500000e+00 6.5941717548e-01 0.0
3.9375000000e+00 6.5941717548e-01 0.0
4.2187500000e+00 6.5941717548e-01 0.0
4.5000000000e+00 6.5941717548e-01 0.0
4.7812500000e+00 6.5941717548e-01 0.0
5.0625000000e+00 6.5941717548e-01 0.0
5.3437500000e+00 6.5941717548e-01 0.0
5.6250000000e+00 6.5941717548e-01 0.0
5.9062500000e+00 6.5941717548e-01 0.0
6.1875000000e+00 6.5941717548e-01 0.0
6.4687500000e+00 6.5941717548e-01 0.0
6.7500000000e+00 6.5941717548e-01 0.0
7.0312500000e+00 6.5941717548e-01 0.0
7.3125000000e+00 6.8590467030e-01 0.0
7.5937500000e+00 7.8248570235e-01 0.0
7.8750000000e+00 9.3728892765e-01 0.0
8.1562500000e+00 1.1109731070e+00 0.0
8.4375000000e+00 1.2975135877e+00 0.0
8.7187500000e+00 1.4320915722e+00 0.0
9.0000000000e+00 1.4495132424e+00 0.0
0.0000000000e+00 1.5971143014e+00 0.0
2.8125000000e-01 1.5813534446e+00 0.0
5.6250000000e-01 1.4596048228e+00 0.0
8.4375000000e-01 1.2908473063e+00 0.0
1.1250000000e+00 1.1337204957e+00 0.0
1.4062500000e+00 9.9367471176e-01 0.0
1.6875000000e+00 9.0630078063e-01 0.0
1.9687500000e+00 8.8233834724e-01 0.0
2.2500000000e+00 8.8233834724e-01 0.0
2.5312500000e+00 8.8233834724e-01 0.0
2.8125000000e+00 8.8233834724e-01 0.0
3.0937500000e+00 8.8233834724e-01 0.0
3.3750000000e+00 8.8233834724e-01 0.0
3.6562500000e+00 8.8233834724e-01 0.0
3.9375000000e+00 8.8233834724e-01 0.0
4.2187500000e+00 8.8233834724e-01 0.0
4.5000000000e+00 8.8233834724e-01 0.0
4.7812500000e+00 8.8233834724e-01 0.0
5.0625000000e+00 8.8233834724e-01 0.0
5.3437500000e+00 8.8233834724e-01 0.0
5.6250000000e+00 8.8233834724e-01 0.0
5.9062500000e+00 8.8233834724e-01 0.0
6.1875000000e+00 8.8233834724e-01 0.0
6.4687500000e+00 8.8233834724e-01 0.0
6.7500000000e+00 8.8233834724e-01 0.0
7.0312500000e+00 8.8233834724e-01 0.0
7.3125000000e+00 9.0630078063e-01 0.0
7.5937500000e+00 9.9367471176e-01 0.0
7.8750000000e+00 1.1337204957e+00 0.0
8.1562500000e+00 1.2908473063e+00 0.0
8.4375000000e+00 1.4596048228e+00 0.0
8.7187500000e+00 1.5813534446e+00 0.0
9.0000000000e+00 1.5971143014e+00 0.0
0.0000000000e+00 1.7590868131e+00 0.0
2.8125000000e-01 1.7451484779e+00 0.0
5.6250000000e-01 1.6374783736e+00 0.0
8.4375000000e-01 1.4882352927e+00 0.0
1.1250000000e+00 1.3492779901e+00 0.0
1.4062500000e+00 1.2254265334e+00 0.0
1.6875000000e+00 1.1481561697e+00 0.0
1.9687500000e+00 1.1269646551e+00 0.0
2.2500000000e+00 1.1269646551e+00 0.0
2.5312500000e+00 1.1269646551e+00 0.0
2.8125000000e+00 1.1269646551e+00 0.0
3.0937500000e+00 1.1269646551e+00 0.0
3.3750000000e+00 1.1269646551e+00 0.0
3.6562500000e+00 1.1269646551e+00 0.0
3.9375000000e+00 1.1269646551e+00 0.0
4.2187500000e+00 1.1269646551e+00 0.0
4.5000000000e+00 1.1269646551e+00 0.0
4.7812500000e+00 1.1269646551e+00 0.0
5.0625000000e+00 1.1269646551e+00 0.0
5.3437500000e+00 1.1269646551e+00 0.0
5.6250000000e+00 1.1269646551e+00 0.0
5.9062500000e+00 1.1269646551e+00 0.0
6.1875000000e+00 1.1269646551e+00 0.0
6.4687500000e+00 1.1269646551e+00 0.0
6.7500000000e+00 1.1269646551e+00 0.0
7.0312500000e+00 1.1269646551e+00 0.0
7.3125000000e+00 1.1481561697e+00 0.0
7.5937500000e+00 1.2254265334e+00 0.0
7.8750000000e+00 1.3492779901e+00 0.0
8.1562500000e+00 1.4882352927e+00 0.0
8.4375000000e+00 1.6374783736e+00 0.0
8.7187500000e+00 1.7451484779e+00 0.0
9.0000000000e+00 1.7590868131e+00 0.0
0.0000000000e+00 1.9305824874e+00 0.0
2.8125000000e-01 1.9185738289e+00 0.0
5.6250000000e-01 1.8258099875e+00 0.0
8.4375000000e-01 1.6972286922e+00 0.0
1.1250000000e+00 1.5775091725e+00 0.0
1.4062500000e+00 1.4708041873e+00 0.0
1.6875000000e+00 1.4042314297e+00 0.0
1.9687500000e+00 1.3859737498e+00 0.0
2.2500000000e+00 1.3859737498e+00 0.0
2.5312500000e+00 1.3859737498e+00 0.0
2.8125000000e+00 1.3859737498e+00 0.0
3.0937500000e+00 1.3859737498e+00 0.0
3.3750000000e+00 1.3859737498e+00 0.0
3.6562500000e+00 1.3859737498e+00 0.0
3.9375000000e+00 1.3859737498e+00 0.0
4.2187500000e+00 1.3859737498e+00 0.0
4.5000000000e+00 1.3859737498e+00 0.0
4.7812500000e+00 1.3859737498e+00 0.0
5.0625000000e+00 1.3859737498e+00 0.0
5.3437500000e+00 1.3859737498e+00 0.0
5.6250000000e+00 1.3859737498e+00 0.0
5.9062500000e+00 1.3859737498e+00 0.0
6.1875000000e+00 1.3859737498e+00 0.0
6.4687500000e+00 1.3859737498e+00 0.0
6.7500000000e+00 1.3859737498e+00 0.0
7.0312500000e+00 1.3859737498e+00 0.0
7.3125000000e+00 1.4042314297e+00 0.0
7.5937500000e+00 1.4708041873e+00 0.0
[...]
POINT_DATA 528

SCALARS Density double 1
LOOKUP_TABLE default
5.3645019214e-01
5.4368336769e-01
5.4199884409e-01
5.3773874841e-01
5.2334138457e-01
5.0654986749e-01
5.5111510496e-01
5.5383624012e-01
5.6390497767e-01
5.4388646686e-01
5.0642362569e-01
5.0438156775e-01
5.2894429755e-01
6.0321564293e-01
5.8848814463e-01
5.5704505388e-01
4.8163079171e-01
4.7534228661e-01
4.3414951043e-01
4.1923584352e-01
4.1711832916e-01
4.2171214689e-01
4.3978496651e-01
4.4485773441e-01
4.6805271907e-01
4.7221347629e-01
4.7741293820e-01
4.4522096577e-01
3.9823505980e-01
3.8912110976e-01
3.8855714716e-01
4.1452044538e-01
4.0644029392e-01
5.1293313089e-01
5.2812635261e-01
5.5014913589e-01
5.5733606623e-01
5.3739276151e-01
5.4520283921e-01
5.6447812811e-01
5.8796013884e-01
5.6125569789e-01
5.0965114262e-01
4.8635050082e-01
4.7261618969e-01
6.0386480660e-01
6.0834760539e-01
6.1731461367e-01
5.1241592745e-01
4.7043343829e-01
4.5770349149e-01
4.2789028205e-01
4.0221563206e-01
3.8283870433e-01
3.8074033183e-01
3.9988589649e-01
4.4086609067e-01
4.5527242622e-01
4.6881446020e-01
4.5430960419e-01
4.3905638958e-01
4.2169552989e-01
3.8985920971e-01
3.8621352280e-01
3.9129746889e-01
3.8689722416e-01
5.3852470460e-01
5.7451461159e-01
5.7291871458e-01
5.6309693200e-01
5.5862811778e-01
5.7326568200e-01
5.9865256636e-01
5.7487033159e-01
5.2153835461e-01
4.8236619508e-01
4.8934183786e-01
5.9528097299e-01
6.1950296764e-01
6.1116973487e-01
5.1472306223e-01
4.8183740339e-01
4.5907921186e-01
4.2611123373e-01
4.0192249293e-01
3.7355117228e-01
3.7262225091e-01
3.9396223490e-01
4.3058929847e-01
4.5403365513e-01
4.6386986947e-01
4.5644117899e-01
4.5272692179e-01
4.3641087584e-01
4.1010751445e-01
3.8976477469e-01
3.7909619845e-01
3.7710534870e-01
3.9731259216e-01
5.6202179458e-01
5.7925901697e-01
5.7532314431e-01
5.6613287307e-01
5.7612167793e-01
5.9841389717e-01
5.7448725069e-01
5.1706718167e-01
4.7794908061e-01
4.8167426562e-01
6.0105970244e-01
6.1236995853e-01
6.1756066195e-01
5.0742143614e-01
4.8492023189e-01
4.6362575136e-01
4.1748045468e-01
4.0244052306e-01
3.6787857034e-01
3.7100363708e-01
3.9622429369e-01
4.3001754079e-01
4.5565849336e-01
4.6419797185e-01
4.5842019352e-01
4.5682798156e-01
4.4259004038e-01
4.0915619636e-01
3.8802458768e-01
3.7424294050e-01
3.7394249048e-01
3.9664764169e-01
4.4938811005e-01
5.8321931764e-01
5.7409376793e-01
5.6229847798e-01
5.7680021643e-01
5.9681170501e-01
5.7337104870e-01
5.1319718300e-01
4.7601582882e-01
4.7845032509e-01
6.0846179963e-01
6.1299317327e-01
6.2641262941e-01
4.9931993894e-01
4.8486683371e-01
4.6308695250e-01
4.1388135818e-01
4.0067551273e-01
3.6383002338e-01
3.7046576583e-01
3.9943814683e-01
4.3280454120e-01
4.5714826011e-01
4.6616161668e-01
4.5977192687e-01
4.5925851419e-01
4.4399523665e-01
4.0888665743e-01
3.8037370390e-01
3.7124795408e-01
3.7345226588e-01
3.9939478077e-01
4.6050604083e-01
4.6739406622e-01
5.7616123754e-01
5.5863070298e-01
5.7821815476e-01
5.9704292223e-01
5.7247641338e-01
5.1055329597e-01
4.7534308420e-01
4.7660118165e-01
6.1158731781e-01
6.1539016985e-01
6.2708542623e-01
4.9668388969e-01
4.8187707325e-01
4.6529352550e-01
4.1277848503e-01
3.9750679615e-01
3.6261622349e-01
3.7043741125e-01
4.0104477761e-01
4.3439720653e-01
4.5687096022e-01
4.6656212588e-01
4.6040841748e-01
4.6052450333e-01
4.4284907494e-01
4.0702614481e-01
3.7539675267e-01
3.6985783196e-01
3.7423354033e-01
3.9544885435e-01
4.6303919286e-01
4.7006780955e-01
4.8101188253e-01
5.5686830440e-01
5.7778362617e-01
5.9738545746e-01
5.7236701007e-01
5.0948522900e-01
4.7542666590e-01
4.7378916581e-01
6.1345812553e-01
6.1674081549e-01
6.2704009607e-01
4.9532706625e-01
4.7955198156e-01
4.6681835947e-01
4.1214497313e-01
3.9487461162e-01
3.6238059098e-01
3.7002382854e-01
4.0207444542e-01
4.3576330164e-01
4.5660123577e-01
4.6727954195e-01
4.6077505502e-01
4.6163971280e-01
4.4197003567e-01
4.0521646717e-01
3.7295432800e-01
3.6871557165e-01
3.7512244156e-01
3.9309859058e-01
4.6671844151e-01
4.7266032928e-01
4.8090549220e-01
4.9905580115e-01
5.7704773598e-01
5.9808125048e-01
5.7197235534e-01
5.0988425179e-01
4.7638579496e-01
4.7273689795e-01
6.1433566061e-01
6.1714315114e-01
6.2715515698e-01
4.9473318945e-01
4.7805688877e-01
4.6768920373e-01
4.1218384743e-01
3.9305727492e-01
3.6258512890e-01
3.6976630254e-01
4.0254172360e-01
4.3671013769e-01
4.5625521292e-01
4.6780267319e-01
4.6062551813e-01
4.6245857291e-01
4.4144512557e-01
4.0421989951e-01
3.7255678482e-01
3.6801788414e-01
3.7597759137e-01
3.9053071931e-01
4.6875500326e-01
4.7398379532e-01
4.8049769817e-01
5.0153364905e-01
4.9448035484e-01
5.9828402521e-01
5.7236073991e-01
5.1052664516e-01
4.7882345990e-01
4.7262364778e-01
6.1461878768e-01
6.1596060860e-01
6.2742429319e-01
4.9485599934e-01
4.7692158300e-01
4.6793907651e-01
4.1269162575e-01
3.9206464189e-01
3.6314969792e-01
3.6962082984e-01
4.0239442946e-01
4.3737414866e-01
4.5588801585e-01
4.6816179813e-01
4.6002147801e-01
4.6296302948e-01
4.4130483236e-01
4.0391016772e-01
3.7262621189e-01
3.6763757659e-01
3.7657512601e-01
3.8860734486e-01
4.6918798913e-01
4.7508875596e-01
4.7896561283e-01
5.0362632405e-01
4.9342885338e-01
4.9226202944e-01
5.7338236108e-01
5.1368591422e-01
4.8304202887e-01
4.7226935865e-01
6.1414056016e-01
6.1347403728e-01
6.2994202644e-01
4.9595185326e-01
4.7594543126e-01
4.6765283257e-01
4.1370224402e-01
3.9185984160e-01
3.6404102842e-01
3.6955690957e-01
4.0167456813e-01
4.3778158018e-01
4.5547379055e-01
4.6838355057e-01
4.5895847605e-01
4.6317089059e-01
4.4158367434e-01
4.0426447600e-01
3.7310447186e-01
3.6710873062e-01
3.7705999573e-01
3.8782766772e-01
4.6858633464e-01
4.7610795455e-01
4.7759133435e-01
5.0463837381e-01
4.9274452329e-01
4.9064051558e-01
4.2162391238e-01
5.1670630977e-01
4.8761843418e-01
4.7379935522e-01
6.1191682625e-01
6.0998617158e-01
6.3120631848e-01
5.0112127926e-01
4.7489181723e-01
4.6684073694e-01
4.1531387042e-01
3.9238671904e-01
3.6534430344e-01
3.6957769193e-01
4.0046172324e-01
4.3787579949e-01
4.5507401608e-01
4.6843584365e-01
4.5739790900e-01
4.6309311482e-01
4.4226522656e-01
4.0524235614e-01
3.7408116614e-01
3.6636335705e-01
3.7765465491e-01
3.8779996904e-01
4.6728121218e-01
4.7704483642e-01
4.7615313304e-01
5.0591632702e-01
4.9091972687e-01
4.9056603506e-01
4.2130369966e-01
4.1243458777e-01
4.9345929606e-01
4.7921283770e-01
6.0607110003e-01
6.0668058806e-01
6.2939391620e-01
5.0719904686e-01
4.7359773939e-01
4.6550202923e-01
4.1735224690e-01
3.9361387216e-01
3.6714725139e-01
3.6952327165e-01
3.9880188658e-01
4.3746837906e-01
4.5495756976e-01
4.6768547163e-01
4.5543756461e-01
4.6245022678e-01
4.4316151300e-01
4.0684900167e-01
3.7545826696e-01
3.6543112002e-01
3.7829077018e-01
3.8765826719e-01
4.6548766513e-01
4.7761423140e-01
4.7573657846e-01
5.0582577232e-01
4.8894652960e-01
4.9212569346e-01
4.2099707170e-01
4.1279398402e-01
3.9149261434e-01
4.8766834871e-01
5.8922420359e-01
6.0688152771e-01
6.2101737300e-01
5.1250390450e-01
4.7582190783e-01
4.6247390294e-01
4.2070174383e-01
3.9589353926e-01
3.6889343965e-01
3.6984393548e-01
3.9695664003e-01
4.3627202700e-01
4.5476794573e-01
4.6524324685e-01
4.5442578928e-01
4.6041895322e-01
4.4542822509e-01
4.0896898619e-01
3.7666107869e-01
3.6673972722e-01
3.7642937878e-01
3.8974856785e-01
4.6268357437e-01
4.7717143167e-01
4.7727386360e-01
5.0049397025e-01
4.9301364999e-01
4.8627411772e-01
4.2719818869e-01
4.1084078561e-01
3.9425644041e-01
3.9160865745e-01
5.8062325851e-01
6.2447113403e-01
6.0622352373e-01
5.2294162038e-01
4.8036350344e-01
4.5695261832e-01
4.2402184263e-01
3.9730724994e-01
3.6834368360e-01
3.7038838773e-01
3.9477599448e-01
4.3236713127e-01
4.5532611446e-01
4.6191266087e-01
4.5719029821e-01
4.5711296981e-01
4.4765857630e-01
4.1001227305e-01
3.7788004209e-01
3.6659549692e-01
3.7186813007e-01
3.9395219791e-01
4.5735466927e-01
4.7571957100e-01
4.7975798715e-01
4.9623610647e-01
4.9879933553e-01
4.7959241613e-01
4.3642120711e-01
4.0633370189e-01
3.9403236309e-01
3.9292110703e-01
4.2543700121e-01
6.3832000505e-01
6.0924905537e-01
5.3123569749e-01
4.9401572664e-01
4.5541594218e-01
4.1984814739e-01
3.9917664606e-01
3.5348517333e-01
3.6152232374e-01
3.8502477850e-01
4.2130055037e-01
4.5322844777e-01
4.5888237806e-01
4.5854439243e-01
4.5463563457e-01
4.4737426233e-01
4.0711476633e-01
3.6972522880e-01
3.5965503677e-01
3.6092763190e-01
3.8556237636e-01
4.5683208307e-01
4.6665003689e-01
4.8177891641e-01
4.9459392854e-01
5.0141869945e-01
4.8631744084e-01
4.2903999807e-01
4.0917384918e-01
3.8065691236e-01
3.8514813185e-01
4.1671998148e-01
4.5253733985e-01
6.3583266015e-01
5.5875200079e-01
5.1330990791e-01
4.7266012146e-01
4.5093505387e-01
3.9489302262e-01
3.3568927190e-01
3.2663083737e-01
3.4783985549e-01
4.0209879291e-01
4.3607910214e-01
4.4612975480e-01
4.6111881472e-01
4.6584087330e-01
4.7446177052e-01
4.1946670635e-01
3.5884557776e-01
3.3282952682e-01
3.3669822670e-01
3.5671429538e-01
4.2281065571e-01
4.6355873859e-01
4.7322828859e-01
4.8407197194e-01
5.0275551330e-01
5.0478185573e-01
4.6055757125e-01
3.9753080899e-01
3.6647283172e-01
3.6563939743e-01
3.9634408140e-01
4.3755863327e-01
4.5957915557e-01

VECTORS Velocity double
-4.1990487770e-02 9.1704633657e-02 0.0
-5.0106146085e-02 1.1458406658e-01 0.0
-2.7167967429e-02 8.9447958120e-03 0.0
2.7663128001e-03 -3.6253377865e-02 0.0
-1.6191324686e-02 8.5747643521e-03 0.0
-5.6230892293e-05 -2.9690155201e-02 0.0
-6.0753549110e-02 8.5995130395e-02 0.0
3.3912166871e-03 1.1906620051e-02 0.0
-2.4390962941e-02 7.1724620119e-02 0.0
-3.1723739161e-02 5.1429386984e-02 0.0
-3.2473985214e-02 6.9335657588e-02 0.0
-5.7682577124e-02 7.4663317031e-02 0.0
-5.6924704843e-02 1.2111888823e-01 0.0
1.4269957032e-01 -3.4977235563e-02 0.0
1.4227621498e-01 3.1321591875e-03 0.0
1.5029036072e-01 -2.1399926686e-02 0.0
-3.2167687602e-02 -3.4446384647e-03 0.0
-3.2366395516e-02 -3.4300901096e-03 0.0
-3.6173969283e-02 3.7455186344e-03 0.0
-6.0674232650e-02 -1.4531270850e-02 0.0
-4.2203788267e-02 3.7341301399e-02 0.0
-3.5531665501e-02 1.0836254899e-02 0.0
-2.8421258871e-02 -7.9282987978e-03 0.0
4.8966159421e-03 1.5492590108e-02 0.0
7.1289524018e-03 2.0018582674e-02 0.0
9.0441148984e-03 5.1900397054e-03 0.0
1.6277646538e-03 1.6514015283e-02 0.0
1.3647863101e-02 9.0212940075e-04 0.0
2.6263404881e-02 -7.6741688898e-03 0.0
1.2868077732e-01 1.2297962800e-01 0.0
1.5140991003e-01 1.6284666420e-01 0.0
-4.9539349209e-02 -6.6745303047e-02 0.0
-1.5694027696e-02 9.3571483569e-02 0.0
-3.2291303985e-04 -8.1907980232e-02 0.0
1.7522766651e-02 -7.9192387240e-02 0.0
2.7810541911e-02 -2.2625584006e-02 0.0
2.7357269891e-02 -7.7394541556e-04 0.0
-3.0120740095e-02 -3.7179062300e-02 0.0
-3.4956881716e-05 8.3289651151e-04 0.0
-3.2647621491e-03 1.3566477435e-02 0.0
9.1269710630e-03 5.8381975108e-02 0.0
-1.0240379079e-02 3.5032613198e-02 0.0
-8.4942007067e-03 1.1006529939e-02 0.0
-2.3297711448e-02 -9.1991265431e-03 0.0
-3.6702493345e-02 -8.8481731815e-02 0.0
1.3163685481e-01 9.4558914558e-03 0.0
1.4004169251e-01 4.1099831869e-02 0.0
1.5571351121e-01 8.7985121986e-02 0.0
-1.2825140958e-02 5.5010534132e-02 0.0
-3.4520132469e-02 -1.7041440424e-02 0.0
-3.0955543087e-02 3.5892137620e-02 0.0
-7.2560919448e-02 2.5723310318e-02 0.0
-6.4817235692e-02 -2.4053888108e-02 0.0
-6.1570931906e-02 -8.7943322807e-02 0.0
-4.4207633129e-02 -1.2519873194e-01 0.0
-4.9284287234e-03 -8.4196195633e-02 0.0
-3.9194253657e-03 -3.8716677197e-02 0.0
-5.7279347006e-03 -3.8894744131e-02 0.0
2.0871386632e-03 -2.2435895934e-03 0.0
3.0929938671e-03 6.7843361067e-04 0.0
1.6135971585e-02 8.0407656553e-03 0.0
-1.1165664046e-02 4.7462492357e-02 0.0
-3.5622090437e-02 -6.3733103611e-02 0.0
-4.4420729209e-02 -1.0879132925e-01 0.0
-3.1367529843e-02 -2.5547501131e-02 0.0
-4.9730706336e-02 -9.0456317259e-02 0.0
2.3432476409e-02 -3.2888290012e-02 0.0
1.5563430375e-02 1.0797050354e-03 0.0
9.1439351202e-03 1.3032915397e-02 0.0
-7.5547089853e-03 1.5572470470e-02 0.0
-6.4342955531e-03 2.6151285004e-02 0.0
-6.1070768001e-03 3.6868144954e-02 0.0
9.4420741508e-03 6.6301039792e-02 0.0
-8.2298728215e-03 5.5076631768e-02 0.0
-9.3427273844e-03 2.8680725896e-02 0.0
-2.6534680053e-02 -5.9088866422e-03 0.0
-2.8478303458e-02 -4.6170276447e-02 0.0
1.3205410471e-01 -2.4622950868e-03 0.0
1.4404893068e-01 4.9016152793e-02 0.0
1.5101551616e-01 7.0766799036e-02 0.0
-1.2324612281e-02 6.2383575760e-02 0.0
-3.4968767969e-02 -3.6801857883e-03 0.0
-3.3212322564e-02 2.2588085814e-02 0.0
-6.5900318277e-02 3.9087540754e-02 0.0
-6.9798063533e-02 -3.2565564753e-02 0.0
-5.9476539864e-02 -9.3991562773e-02 0.0
-4.9304825857e-02 -1.3809648287e-01 0.0
-3.6971086613e-03 -1.0031123189e-01 0.0
-4.1845851008e-03 -5.1971283903e-02 0.0
-5.1751127320e-03 -3.8261332323e-02 0.0
1.0157205494e-03 -1.7732613636e-02 0.0
5.5099227884e-03 -1.8276482048e-03 0.0
2.4554359445e-02 2.8027209307e-02 0.0
-1.1079919917e-02 5.6520434861e-02 0.0
-4.3642685699e-02 -7.3315847767e-03 0.0
-4.7036335734e-02 -7.8197631971e-02 0.0
-3.6800715573e-02 -7.6804777005e-02 0.0
-5.3242737726e-02 -7.9077493366e-02 0.0
-2.8233364212e-02 -9.7096300652e-02 0.0
2.1047209017e-02 -4.4520196319e-03 0.0
1.0622473104e-02 2.2035641734e-02 0.0
-6.0615515878e-03 2.6007967111e-02 0.0
-8.1723647746e-03 3.0403216058e-02 0.0
-7.1879227600e-03 3.7646100208e-02 0.0
1.4081772917e-02 6.0529322180e-02 0.0
-5.4835366542e-03 5.5705287510e-02 0.0
-1.1579861313e-02 1.9696870018e-02 0.0
-2.5142885598e-02 -1.2650664030e-02 0.0
-2.8324730268e-02 -3.9338905408e-02 0.0
1.3242309474e-01 -6.1888777557e-03 0.0
1.4870998410e-01 6.1916135442e-02 0.0
1.4625216572e-01 6.4023090932e-02 0.0
-1.2241098115e-02 6.2736677280e-02 0.0
-3.7559436101e-02 -1.2091146893e-02 0.0
-3.2769638728e-02 1.5179258952e-02 0.0
-6.2670993167e-02 4.8260039236e-02 0.0
-7.4024071606e-02 -4.8905301611e-02 0.0
-5.5620587820e-02 -9.3321250548e-02 0.0
-5.4404400792e-02 -1.4041843297e-01 0.0
-1.5450595988e-03 -9.6541147924e-02 0.0
-4.9359991291e-03 -4.0853735184e-02 0.0
-5.1725017034e-03 -3.5263466311e-02 0.0
8.6437150913e-04 -2.0633601114e-02 0.0
6.0372821448e-03 1.4107035384e-03 0.0
2.7635271187e-02 2.8396153972e-02 0.0
-4.8093399197e-03 5.2573000330e-02 0.0
-3.5326017912e-02 -3.1196998309e-03 0.0
-4.6483020885e-02 -8.0188648403e-02 0.0
-3.7815987323e-02 -8.7167441443e-02 0.0
-4.7447481328e-02 -7.5747859192e-02 0.0
-2.1838974016e-02 -9.3248170211e-02 0.0
-2.8158814573e-02 -6.1966846510e-02 0.0
1.1320044421e-02 1.4496969679e-02 0.0
-5.6734403869e-03 2.7222092066e-02 0.0
-9.3000884520e-03 3.2788014183e-02 0.0
-6.3626724261e-03 4.1544049402e-02 0.0
1.4596225419e-02 6.2998336880e-02 0.0
-4.2565238687e-03 4.9977890378e-02 0.0
-8.3486513491e-03 1.6204422693e-02 0.0
-2.5375071055e-02 -1.7080430077e-02 0.0
-2.8176013079e-02 -3.7673597768e-02 0.0
1.3372559036e-01 2.6614732675e-03 0.0
1.4790271386e-01 5.7832120808e-02 0.0
1.4462620356e-01 6.5659944032e-02 0.0
-1.5892446877e-02 5.0532241780e-02 0.0
-3.6704104164e-02 -1.0167797531e-02 0.0
-3.3005854395e-02 1.0475463936e-02 0.0
-6.2170362901e-02 4.5430453231e-02 0.0
-7.3434825451e-02 -4.9889384974e-02 0.0
-5.7404306241e-02 -9.9561590446e-02 0.0
-5.4615319402e-02 -1.3793030365e-01 0.0
-2.1541988646e-03 -9.4980402323e-02 0.0
-4.4231356071e-03 -3.8358904597e-02 0.0
-5.2862040728e-03 -3.5033992404e-02 0.0
8.9292630053e-04 -2.0615071346e-02 0.0
5.8104534591e-03 -1.3714977714e-03 0.0
2.8344522458e-02 3.3561399139e-02 0.0
2.0771468695e-03 4.7182524349e-02 0.0
-3.5903600378e-02 -5.4646182014e-03 0.0
-4.2360802982e-02 -8.5353636459e-02 0.0
-3.9048244078e-02 -9.5568632070e-02 0.0
-4.9994330072e-02 -7.7970362657e-02 0.0
-1.6905659786e-02 -8.4657281129e-02 0.0
-2.2099848770e-02 -5.4576799461e-02 0.0
-3.5172573322e-02 -1.6110267812e-02 0.0
-4.2681217868e-03 2.9295274625e-02 0.0
-1.4156505260e-02 3.1990022315e-02 0.0
-5.0414828428e-03 4.3214978081e-02 0.0
1.3762986456e-02 6.4564299413e-02 0.0
-3.7029866196e-03 4.8303048026e-02 0.0
-6.0064230569e-03 1.5328177262e-02 0.0
-2.4382610903e-02 -1.9364963242e-02 0.0
-2.8259151457e-02 -3.5367317164e-02 0.0
1.3509487251e-01 9.3450867890e-03 0.0
1.4668725501e-01 5.6215286083e-02 0.0
1.4488243365e-01 6.7103654557e-02 0.0
-1.8533721912e-02 4.3961720868e-02 0.0
-3.6153687993e-02 -1.3540807886e-02 0.0
-3.2994685333e-02 9.1784779915e-03 0.0
-6.1757603075e-02 4.1909822437e-02 0.0
-7.3141189643e-02 -5.2805543670e-02 0.0
-5.8635335541e-02 -1.0280814164e-01 0.0
-5.4534838124e-02 -1.3597494067e-01 0.0
-2.6946154326e-03 -9.2756350736e-02 0.0
-4.0467795494e-03 -3.5632659261e-02 0.0
-5.3663093461e-03 -3.3745621935e-02 0.0
9.1831447948e-04 -2.0138774607e-02 0.0
5.6261508280e-03 -2.5698968152e-03 0.0
2.8845820705e-02 3.7051586212e-02 0.0
2.7075483294e-03 4.5249485535e-02 0.0
-3.6259647090e-02 -1.0495983686e-02 0.0
-3.9172203979e-02 -8.6900821950e-02 0.0
-4.0482165064e-02 -1.0007589573e-01 0.0
-5.1332750159e-02 -7.5660736798e-02 0.0
-2.0378364832e-02 -7.2582017173e-02 0.0
-1.5045611301e-02 -4.8170857552e-02 0.0
-3.6586741672e-02 -1.1325292942e-02 0.0
-3.3403987339e-02 -1.7354279828e-02 0.0
-1.6181756516e-02 3.0069715474e-02 0.0
-1.0158790536e-03 4.5794165956e-02 0.0
1.2592701702e-02 6.5507724983e-02 0.0
-3.6508753040e-03 4.8156732037e-02 0.0
-5.3927314149e-03 1.5108825460e-02 0.0
-2.3627959281e-02 -2.0271580595e-02 0.0
-3.6405650448e-02 -3.6275747075e-02 0.0
1.3585613730e-01 1.4118358120e-02 0.0
1.4578076674e-01 5.4305919355e-02 0.0
1.4531296317e-01 6.8380687788e-02 0.0
-2.0408048993e-02 3.8272253608e-02 0.0
-3.5695072188e-02 -1.5308255352e-02 0.0
-3.2956456486e-02 9.7534292088e-03 0.0
-6.1664863778e-02 3.8745600871e-02 0.0
-7.2822863230e-02 -5.4412040049e-02 0.0
-5.9558693424e-02 -1.0445289025e-01 0.0
-5.4366310677e-02 -1.3498255727e-01 0.0
-3.1349091665e-03 -9.1027804365e-02 0.0
-3.7836395599e-03 -3.4179890732e-02 0.0
-5.4152285286e-03 -3.3091574805e-02 0.0
9.5704173205e-04 -1.9555547191e-02 0.0
5.4739283248e-03 -3.5066046003e-03 0.0
2.9127299300e-02 3.9292615242e-02 0.0
3.1592205206e-03 4.3990228845e-02 0.0
-3.7104304617e-02 -1.5194914498e-02 0.0
-3.7557961836e-02 -8.7611058518e-02 0.0
-4.2010799995e-02 -1.0232216792e-01 0.0
-5.1916261099e-02 -7.4700683589e-02 0.0
-2.2417992295e-02 -6.5587659192e-02 0.0
-1.9939309230e-02 -4.3602985439e-02 0.0
-3.7715536755e-02 -1.0135237882e-02 0.0
-3.1394579144e-02 -1.8125308500e-02 0.0
4.6257233250e-04 -1.2954819155e-02 0.0
3.8529215981e-05 4.7310493206e-02 0.0
8.3998631537e-03 6.7902933359e-02 0.0
-3.6716677384e-03 4.9707310408e-02 0.0
-5.5723394617e-03 1.6746033659e-02 0.0
-2.3257555308e-02 -2.0102220171e-02 0.0
-4.2989493100e-02 -3.9110086078e-02 0.0
1.3042319360e-01 1.5964269567e-02 0.0
1.4515483562e-01 5.2393719034e-02 0.0
1.4575388042e-01 7.0084940350e-02 0.0
-2.1654097850e-02 3.4310897555e-02 0.0
-3.5324938852e-02 -1.6089394097e-02 0.0
-3.2879874050e-02 1.0973208158e-02 0.0
-6.1829591476e-02 3.5949480329e-02 0.0
-7.2421180156e-02 -5.4840655684e-02 0.0
-6.0276031762e-02 -1.0550523366e-01 0.0
-5.4048192812e-02 -1.3463641543e-01 0.0
-3.4754101365e-03 -8.9776593487e-02 0.0
-3.6197553489e-03 -3.3579357111e-02 0.0
-5.4488642766e-03 -3.2890948527e-02 0.0
1.0222354403e-03 -1.8879690898e-02 0.0
5.3508713733e-03 -4.4436483178e-03 0.0
2.9210958228e-02 4.0620544955e-02 0.0
3.5093586424e-03 4.3468667512e-02 0.0
-3.7670955828e-02 -1.8020332055e-02 0.0
-3.7473136321e-02 -8.8042454684e-02 0.0
-4.3005481886e-02 -1.0261999954e-01 0.0
-5.1879501684e-02 -7.3876484361e-02 0.0
-2.5132115829e-02 -6.1783314863e-02 0.0
-2.4039308045e-02 -3.9283634903e-02 0.0
-3.6328550538e-02 -9.5774334635e-03 0.0
-2.9498820545e-02 -1.8091870969e-02 0.0
2.8698726374e-03 -1.0477386467e-02 0.0
5.8414429876e-03 6.1669139675e-03 0.0
6.8164524292e-03 6.9440018017e-02 0.0
-7.4499834617e-03 5.1027437359e-02 0.0
-5.7497302970e-03 2.0075435859e-02 0.0
-2.2774876471e-02 -1.9019267599e-02 0.0
-4.5934852520e-02 -4.3639877359e-02 0.0
1.2625270321e-01 1.6511804672e-02 0.0
1.4478688698e-01 5.0791696071e-02 0.0
1.4636495777e-01 7.2282482877e-02 0.0
-2.2357174744e-02 3.1936692192e-02 0.0
-3.5066178481e-02 -1.6395085868e-02 0.0
-3.2756777570e-02 1.2871657418e-02 0.0
-6.2283396863e-02 3.3712508024e-02 0.0
-7.1905927537e-02 -5.4279472930e-02 0.0
-6.0836349914e-02 -1.0624172619e-01 0.0