# vtk DataFile Version 3.0
D2Q9 Periodic Hill Flow at timestep 10500
ASCII
DATASET STRUCTURED_GRID
DIMENSIONS 33 16 1
POINTS 528 double
0.0000000000e+00 1.0381750000e+00 0.0
2.8125000000e-01 1.0161249342e+00 0.0
5.6250000000e-01 8.4579376806e-01 0.0
8.4375000000e-01 6.0969528778e-01 0.0
1.1250000000e+00 3.8986862790e-01 0.0
1.4062500000e+00 1.9393900392e-01 0.0
1.6875000000e+00 7.1699397761e-02 0.0
1.9687500000e+00 3.8175000000e-02 0.0
2.2500000000e+00 3.8175000000e-02 0.0
2.5312500000e+00 3.8175000000e-02 0.0
2.8125000000e+00 3.8175000000e-02 0.0
3.0937500000e+00 3.8175000000e-02 0.0
3.3750000000e+00 3.8175000000e-02 0.0
3.6562500000e+00 3.8175000000e-02 0.0
3.9375000000e+00 3.8175000000e-02 0.0
4.2187500000e+00 3.8175000000e-02 0.0
4.5000000000e+00 3.8175000000e-02 0.0
4.7812500000e+00 3.8175000000e-02 0.0
5.0625000000e+00 3.8175000000e-02 0.0
5.3437500000e+00 3.8175000000e-02 0.0
5.6250000000e+00 3.8175000000e-02 0.0
5.9062500000e+00 3.8175000000e-02 0.0
6.1875000000e+00 3.8175000000e-02 0.0
6.4687500000e+00 3.8175000000e-02 0.0
6.7500000000e+00 3.8175000000e-02 0.0
7.0312500000e+00 3.8175000000e-02 0.0
7.3125000000e+00 7.1699397761e-02 0.0
7.5937500000e+00 1.9393900392e-01 0.0
7.8750000000e+00 3.8986862790e-01 0.0
8.1562500000e+00 6.0969528778e-01 0.0
8.4375000000e+00 8.4579376806e-01 0.0
8.7187500000e+00 1.0161249342e+00 0.0
9.0000000000e+00 1.0381750000e+00 0.0
0.0000000000e+00 1.1145250000e+00 0.0
2.8125000000e-01 1.0933340277e+00 0.0
5.6250000000e-01 9.2963914074e-01 0.0
8.4375000000e-01 7.0273930254e-01 0.0
1.1250000000e+00 4.9147731772e-01 0.0
1.4062500000e+00 3.0318131545e-01 0.0
1.6875000000e+00 1.8570429135e-01 0.0
1.9687500000e+00 1.5348603896e-01 0.0
2.2500000000e+00 1.5348603896e-01 0.0
2.5312500000e+00 1.5348603896e-01 0.0
2.8125000000e+00 1.5348603896e-01 0.0
3.0937500000e+00 1.5348603896e-01 0.0
3.3750000000e+00 1.5348603896e-01 0.0
3.6562500000e+00 1.5348603896e-01 0.0
3.9375000000e+00 1.5348603896e-01 0.0
4.2187500000e+00 1.5348603896e-01 0.0
4.5000000000e+00 1.5348603896e-01 0.0
4.7812500000e+00 1.5348603896e-01 0.0
5.0625000000e+00 1.5348603896e-01 0.0
5.3437500000e+00 1.5348603896e-01 0.0
5.6250000000e+00 1.5348603896e-01 0.0
5.9062500000e+00 1.5348603896e-01 0.0
6.1875000000e+00 1.5348603896e-01 0.0
6.4687500000e+00 1.5348603896e-01 0.0
6.7500000000e+00 1.5348603896e-01 0.0
7.0312500000e+00 1.5348603896e-01 0.0
7.3125000000e+00 1.8570429135e-01 0.0
7.5937500000e+00 3.0318131545e-01 0.0
7.8750000000e+00 4.9147731772e-01 0.0
8.1562500000e+00 7.0273930254e-01 0.0
8.4375000000e+00 9.2963914074e-01 0.0
8.7187500000e+00 1.0933340277e+00 0.0
9.0000000000e+00 1.1145250000e+00 0.0
0.0000000000e+00 1.2077762062e+00 0.0
2.8125000000e-01 1.1876345004e+00 0.0
5.6250000000e-01 1.0320449316e+00 0.0
8.4375000000e-01 8.1637999156e-01 0.0
1.1250000000e+00 6.1557859980e-01 0.0
1.4062500000e+00 4.3660603476e-01 0.0
1.6875000000e+00 3.2494586098e-01 0.0
1.9687500000e+00 2.9432288862e-01 0.0
2.2500000000e+00 2.9432288862e-01 0.0
2.5312500000e+00 2.9432288862e-01 0.0
2.8125000000e+00 2.9432288862e-01 0.0
3.0937500000e+00 2.9432288862e-01 0.0
3.3750000000e+00 2.9432288862e-01 0.0
3.6562500000e+00 2.9432288862e-01 0.0
3.9375000000e+00 2.9432288862e-01 0.0
4.2187500000e+00 2.9432288862e-01 0.0
4.5000000000e+00 2.9432288862e-01 0.0
4.7812500000e+00 2.9432288862e-01 0.0
5.0625000000e+00 2.9432288862e-01 0.0
5.3437500000e+00 2.9432288862e-01 0.0
5.6250000000e+00 2.9432288862e-01 0.0
5.9062500000e+00 2.9432288862e-01 0.0
6.1875000000e+00 2.9432288862e-01 0.0
6.4687500000e+00 2.9432288862e-01 0.0
6.7500000000e+00 2.9432288862e-01 0.0
7.0312500000e+00 2.9432288862e-01 0.0
7.3125000000e+00 3.2494586098e-01 0.0
7.5937500000e+00 4.3660603476e-01 0.0
7.8750000000e+00 6.1557859980e-01 0.0
8.1562500000e+00 8.1637999156e-01 0.0
8.4375000000e+00 1.0320449316e+00 0.0
8.7187500000e+00 1.1876345004e+00 0.0
9.0000000000e+00 1.2077762062e+00 0.0
0.0000000000e+00 1.3193302628e+00 0.0
2.8125000000e-01 1.3004437680e+00 0.0
5.6250000000e-01 1.1545503861e+00 0.0
8.4375000000e-01 9.5232547010e-01 0.0
1.1250000000e+00 7.6403782092e-01 0.0
1.4062500000e+00 5.9621864774e-01 0.0
1.6875000000e+00 4.9151702468e-01 0.0
1.9687500000e+00 4.6280244544e-01 0.0
2.2500000000e+00 4.6280244544e-01 0.0
2.5312500000e+00 4.6280244544e-01 0.0
2.8125000000e+00 4.6280244544e-01 0.0
3.0937500000e+00 4.6280244544e-01 0.0
3.3750000000e+00 4.6280244544e-01 0.0
3.6562500000e+00 4.6280244544e-01 0.0
3.9375000000e+00 4.6280244544e-01 0.0
4.2187500000e+00 4.6280244544e-01 0.0
4.5000000000e+00 4.6280244544e-01 0.0
4.7812500000e+00 4.6280244544e-01 0.0
5.0625000000e+00 4.6280244544e-01 0.0
5.3437500000e+00 4.6280244544e-01 0.0
5.6250000000e+00 4.6280244544e-01 0.0
5.9062500000e+00 4.6280244544e-01 0.0
6.1875000000e+00 4.6280244544e-01 0.0
6.4687500000e+00 4.6280244544e-01 0.0
6.7500000000e+00 4.6280244544e-01 0.0
7.0312500000e+00 4.6280244544e-01 0.0
7.3125000000e+00 4.9151702468e-01 0.0
7.5937500000e+00 5.9621864774e-01 0.0
7.8750000000e+00 7.6403782092e-01 0.0
8.1562500000e+00 9.5232547010e-01 0.0
8.4375000000e+00 1.1545503861e+00 0.0
8.7187500000e+00 1.3004437680e+00 0.0
9.0000000000e+00 1.3193302628e+00 0.0
0.0000000000e+00 1.4495132424e+00 0.0
2.8125000000e-01 1.4320915722e+00 0.0
5.6250000000e-01 1.2975135877e+00 0.0
8.4375000000e-01 1.1109731070e+00 0.0
1.1250000000e+00 9.3728892765e-01 0.0
1.4062500000e+00 7.8248570235e-01 0.0
1.6875000000e+00 6.8590467030e-01 0.0
1.9687500000e+00 6.5941717548e-01 0.0
2.2500000000e+00 6.5941717548e-01 0.0
2.5312500000e+00 6.5941717548e-01 0.0
2.8125000000e+00 6.5941717548e-01 0.0
3.0937500000e+00 6.5941717548e-01 0.0
3.3750000000e+00 6.5941717548e-01 0.0
3.6562500000e+00 6.5941717548e-01 0.0
3.9375000000e+00 6.5941717548e-01 0.0
4.2187500000e+00 6.5941717548e-01 0.0
4.5000000000e+00 6.5941717548e-01 0.0
4.7812500000e+00 6.5941717548e-01 0.0
5.0625000000e+00 6.5941717548e-01 0.0
5.3437500000e+00 6.5941717548e-01 0.0
5.6250000000e+00 6.5941717548e-01 0.0
5.9062500000e+00 6.5941717548e-01 0.0
6.1875000000e+00 6.5941717548e-01 0.0
6.4687500000e+00 6.5941717548e-01 0.0
6.7500000000e+00 6.5941717548e-01 0.0
7.0312500000e+00 6.5941717548e-01 0.0
7.3125000000e+00 6.8590467030e-01 0.0
7.5937500000e+00 7.8248570235e-01 0.0
7.8750000000e+00 9.3728892765e-01 0.0
8.1562500000e+00 1.1109731070e+00 0.0
8.4375000000e+00 1.2975135877e+00 0.0
8.7187500000e+00 1.4320915722e+00 0.0
9.0000000000e+00 1.4495132424e+00 0.0
0.0000000000e+00 1.5971143014e+00 0.0
2.8125000000e-01 1.5813534446e+00 0.0
5.6250000000e-01 1.4596048228e+00 0.0
8.4375000000e-01 1.2908473063e+00 0.0
1.1250000000e+00 1.1337204957e+00 0.0
1.4062500000e+00 9.9367471176e-01 0.0
1.6875000000e+00 9.0630078063e-01 0.0
1.9687500000e+00 8.8233834724e-01 0.0
2.2500000000e+00 8.8233834724e-01 0.0
2.5312500000e+00 8.8233834724e-01 0.0
2.8125000000e+00 8.8233834724e-01 0.0
3.0937500000e+00 8.8233834724e-01 0.0
3.3750000000e+00 8.8233834724e-01 0.0
3.6562500000e+00 8.8233834724e-01 0.0
3.9375000000e+00 8.8233834724e-01 0.0
4.2187500000e+00 8.8233834724e-01 0.0
4.5000000000e+00 8.8233834724e-01 0.0
4.7812500000e+00 8.8233834724e-01 0.0
5.0625000000e+00 8.8233834724e-01 0.0
5.3437500000e+00 8.8233834724e-01 0.0
5.6250000000e+00 8.8233834724e-01 0.0
5.9062500000e+00 8.8233834724e-01 0.0
6.1875000000e+00 8.8233834724e-01 0.0
6.4687500000e+00 8.8233834724e-01 0.0
6.7500000000e+00 8.8233834724e-01 0.0
7.0312500000e+00 8.8233834724e-01 0.0
7.3125000000e+00 9.0630078063e-01 0.0
7.5937500000e+00 9.9367471176e-01 0.0
7.8750000000e+00 1.1337204957e+00 0.0
8.1562500000e+00 1.2908473063e+00 0.0
8.4375000000e+00 1.4596048228e+00 0.0
8.7187500000e+00 1.5813534446e+00 0.0
9.0000000000e+00 1.5971143014e+00 0.0
0.0000000000e+00 1.7590868131e+00 0.0
2.8125000000e-01 1.7451484779e+00 0.0
5.6250000000e-01 1.6374783736e+00 0.0
8.4375000000e-01 1.4882352927e+00 0.0
1.1250000000e+00 1.3492779901e+00 0.0
1.4062500000e+00 1.2254265334e+00 0.0
1.6875000000e+00 1.1481561697e+00 0.0
1.9687500000e+00 1.1269646551e+00 0.0
2.2500000000e+00 1.1269646551e+00 0.0
2.5312500000e+00 1.1269646551e+00 0.0
2.8125000000e+00 1.1269646551e+00 0.0
3.0937500000e+00 1.1269646551e+00 0.0
3.3750000000e+00 1.1269646551e+00 0.0
3.6562500000e+00 1.1269646551e+00 0.0
3.9375000000e+00 1.1269646551e+00 0.0
4.2187500000e+00 1.1269646551e+00 0.0
4.5000000000e+00 1.1269646551e+00 0.0
4.7812500000e+00 1.1269646551e+00 0.0
5.0625000000e+00 1.1269646551e+00 0.0
5.3437500000e+00 1.1269646551e+00 0.0
5.6250000000e+00 1.1269646551e+00 0.0
5.9062500000e+00 1.1269646551e+00 0.0
6.1875000000e+00 1.1269646551e+00 0.0
6.4687500000e+00 1.1269646551e+00 0.0
6.7500000000e+00 1.1269646551e+00 0.0
7.0312500000e+00 1.1269646551e+00 0.0
7.3125000000e+00 1.1481561697e+00 0.0
7.5937500000e+00 1.2254265334e+00 0.0
7.8750000000e+00 1.3492779901e+00 0.0
8.1562500000e+00 1.4882352927e+00 0.0
8.4375000000e+00 1.6374783736e+00 0.0
8.7187500000e+00 1.7451484779e+00 0.0
9.0000000000e+00 1.7590868131e+00 0.0
0.0000000000e+00 1.9305824874e+00 0.0
2.8125000000e-01 1.9185738289e+00 0.0
5.6250000000e-01 1.8258099875e+00 0.0
8.4375000000e-01 1.6972286922e+00 0.0
1.1250000000e+00 1.5775091725e+00 0.0
1.4062500000e+00 1.4708041873e+00 0.0
1.6875000000e+00 1.4042314297e+00 0.0
1.9687500000e+00 1.3859737498e+00 0.0
2.2500000000e+00 1.3859737498e+00 0.0
2.5312500000e+00 1.3859737498e+00 0.0
2.8125000000e+00 1.3859737498e+00 0.0
3.0937500000e+00 1.3859737498e+00 0.0
3.3750000000e+00 1.3859737498e+00 0.0
3.6562500000e+00 1.3859737498e+00 0.0
3.9375000000e+00 1.3859737498e+00 0.0
4.2187500000e+00 1.3859737498e+00 0.0
4.5000000000e+00 1.3859737498e+00 0.0
4.7812500000e+00 1.3859737498e+00 0.0
5.0625000000e+00 1.3859737498e+00 0.0
5.3437500000e+00 1.3859737498e+00 0.0
5.6250000000e+00 1.3859737498e+00 0.0
5.9062500000e+00 1.3859737498e+00 0.0
6.1875000000e+00 1.3859737498e+00 0.0
6.4687500000e+00 1.3859737498e+00 0.0
6.7500000000e+00 1.3859737498e+00 0.0
7.0312500000e+00 1.3859737498e+00 0.0
7.3125000000e+00 1.4042314297e+00 0.0
7.5937500000e+00 1.4708041873e+00 0.0
[...]
POINT_DATA 528

SCALARS Density double 1
LOOKUP_TABLE default
5.3731254230e-01
5.4389638670e-01
5.4256099725e-01
5.3830432124e-01
5.2386699863e-01
5.0679509723e-01
5.5113421168e-01
5.5454555891e-01
5.6485371308e-01
5.4465833903e-01
5.0714182766e-01
5.0474842397e-01
5.2899728692e-01
6.0321181409e-01
5.8847566387e-01
5.5708923795e-01
4.8145959462e-01
4.7545648251e-01
4.3325507522e-01
4.1864981843e-01
4.1677387935e-01
4.2147201131e-01
4.3936533370e-01
4.4453437422e-01
4.6798488159e-01
4.7204536156e-01
4.7722459697e-01
4.4470900600e-01
3.9694215932e-01
3.8580138704e-01
3.8520322748e-01
4.1434269315e-01
4.0591293666e-01
5.1362145681e-01
5.2835911399e-01
5.5089428502e-01
5.5797472048e-01
5.3777735039e-01
5.4562160467e-01
5.6529853342e-01
5.8899495961e-01
5.6218137638e-01
5.1061988433e-01
4.8689950459e-01
4.7278725588e-01
6.0386128485e-01
6.0834716768e-01
6.1733224324e-01
5.1233076011e-01
4.7065268459e-01
4.5685793579e-01
4.2784638890e-01
4.0209719308e-01
3.8227624843e-01
3.7980142263e-01
3.9927979865e-01
4.4068418107e-01
4.5504758677e-01
4.6873888145e-01
4.5392623984e-01
4.3864467692e-01
4.2074033081e-01
3.8847290807e-01
3.8534151955e-01
3.9103421333e-01
3.8650279340e-01
5.3887331550e-01
5.7501797109e-01
5.7363630703e-01
5.6362374194e-01
5.5905044180e-01
5.7426053082e-01
5.9979276338e-01
5.7576197243e-01
5.2239828425e-01
4.8289688117e-01
4.8949744758e-01
5.9525203402e-01
6.1949113954e-01
6.1116876861e-01
5.1471713350e-01
4.8184881860e-01
4.5862740470e-01
4.2581913327e-01
4.0201257930e-01
3.7296806792e-01
3.7175697065e-01
3.9342581772e-01
4.3039472367e-01
4.5385987282e-01
4.6370951235e-01
4.5616848425e-01
4.5263277550e-01
4.3585558284e-01
4.0916887205e-01
3.8922031571e-01
3.7881803087e-01
3.7669961659e-01
3.9710219881e-01
5.6269674419e-01
5.7993834979e-01
5.7587011154e-01
5.6654762460e-01
5.7709761014e-01
5.9969890280e-01
5.7544827463e-01
5.1794638505e-01
4.7849815502e-01
4.8189303274e-01
6.0104640180e-01
6.1239339610e-01
6.1756453636e-01
5.0742277238e-01
4.8491754219e-01
4.6330137061e-01
4.1707173376e-01
4.0259519155e-01
3.6722982899e-01
3.7011619161e-01
3.9562334122e-01
4.2978017312e-01
4.5545596610e-01
4.6403502450e-01
4.5813193341e-01
4.5689082993e-01
4.4227315627e-01
4.0822981462e-01
3.8741387046e-01
3.7380650661e-01
3.7346373394e-01
3.9650301985e-01
4.4927330983e-01
5.8390589017e-01
5.7464483473e-01
5.6269303289e-01
5.7779191082e-01
5.9812205925e-01
5.7434674080e-01
5.1400588422e-01
4.7654968604e-01
4.7865774394e-01
6.0842727920e-01
6.1300830522e-01
6.2640779303e-01
4.9931937395e-01
4.8487531604e-01
4.6277726639e-01
4.1351725149e-01
4.0076023045e-01
3.6316162688e-01
3.6954434093e-01
3.9886602056e-01
4.3262797908e-01
4.5696585105e-01
4.6601527135e-01
4.5946896383e-01
4.5935919785e-01
4.4378296558e-01
4.0801747675e-01
3.7961578820e-01
3.7075680355e-01
3.7293409641e-01
3.9942239322e-01
4.6052114642e-01
4.6738781544e-01
5.7671962670e-01
5.5891880583e-01
5.7920398158e-01
5.9832391092e-01
5.7344468228e-01
5.1133446838e-01
4.7582217939e-01
4.7680552598e-01
6.1155750499e-01
6.1540462200e-01
6.2708058915e-01
4.9668323571e-01
4.8189533004e-01
4.6498602507e-01
4.1246456004e-01
3.9752261115e-01
3.6192613866e-01
3.6951687142e-01
4.0048783633e-01
4.3422801038e-01
4.5667940393e-01
4.6641805544e-01
4.6009772356e-01
4.6064162198e-01
4.4262399730e-01
4.0617021288e-01
3.7451583937e-01
3.6930554427e-01
3.7372403970e-01
3.9544619723e-01
4.6316798889e-01
4.7007607982e-01
4.8101643531e-01
5.5711878632e-01
5.7862365348e-01
5.9862844402e-01
5.7333279239e-01
5.1024976887e-01
4.7586133991e-01
4.7395295751e-01
6.1343191507e-01
6.1675247182e-01
6.2703739745e-01
4.9532554040e-01
4.7958060900e-01
4.6650064654e-01
4.1188409087e-01
3.9482569763e-01
3.6168758115e-01
3.6910285507e-01
4.0152516982e-01
4.3559888629e-01
4.5640587623e-01
4.6713761816e-01
4.6045755434e-01
4.6177012285e-01
4.4173100300e-01
4.0435491232e-01
3.7200856783e-01
3.6809095270e-01
3.7461911872e-01
3.9304134542e-01
4.6682213720e-01
4.7266406794e-01
4.8090781301e-01
4.9907515845e-01
5.7778844995e-01
5.9914406413e-01
5.7293055696e-01
5.1065227375e-01
4.7681085465e-01
4.7285222121e-01
6.1428355071e-01
6.1715177003e-01
6.2715393014e-01
4.9472907430e-01
4.7809632865e-01
4.6734942502e-01
4.1197237418e-01
3.9295999594e-01
3.6189513191e-01
3.6884360407e-01
4.0199921026e-01
4.3654733057e-01
4.5605631616e-01
4.6766509359e-01
4.6030166357e-01
4.6260083260e-01
4.4119446120e-01
4.0335581953e-01
3.7161185032e-01
3.6735221611e-01
3.7549230323e-01
3.9040640913e-01
4.6882845672e-01
4.7397722992e-01
4.8050310072e-01
5.0155650009e-01
4.9440502780e-01
5.9926378119e-01
5.7328640713e-01
5.1129486072e-01
4.7925791753e-01
4.7270746876e-01
6.1455003596e-01
6.1596873070e-01
6.2742539782e-01
4.9484835807e-01
4.7697363177e-01
4.6756542500e-01
4.1252543528e-01
3.9193768325e-01
3.6246533179e-01
3.6869726264e-01
4.0185519227e-01
4.3721224076e-01
4.5568574580e-01
4.6802999646e-01
4.5968912040e-01
4.6311519544e-01
4.4104543056e-01
4.0304473986e-01
3.7168611343e-01
3.6696824666e-01
3.7610248385e-01
3.8841277412e-01
4.6922495868e-01
4.7508218993e-01
4.7896563887e-01
5.0365123156e-01
4.9333741620e-01
4.9227633534e-01
5.7428647058e-01
5.1453147452e-01
4.8348656879e-01
4.7234165342e-01
6.1407228524e-01
6.1347877419e-01
6.2994483015e-01
4.9593838967e-01
4.7601180249e-01
4.6723356975e-01
4.1357712524e-01
3.9172204604e-01
3.6336485808e-01
3.6863249920e-01
4.0113508382e-01
4.3762079358e-01
4.5526682278e-01
4.6825953267e-01
4.5861585768e-01
4.6333097134e-01
4.4131891197e-01
4.0339871880e-01
3.7217194167e-01
3.6643718534e-01
3.7658787234e-01
3.8758794072e-01
4.6858748226e-01
4.7610468556e-01
4.7758360235e-01
5.0468001341e-01
4.9264316980e-01
4.9062481914e-01
4.2094900536e-01
5.1758785847e-01
4.8810753636e-01
4.7386375770e-01
6.1185703217e-01
6.0998613430e-01
6.3120812843e-01
5.0110692497e-01
4.7497126613e-01
4.6636603854e-01
4.1522475343e-01
3.9225730250e-01
3.6467944759e-01
3.6865288385e-01
3.9991948284e-01
4.3771590000e-01
4.5486368880e-01
4.6832160010e-01
4.5704357046e-01
4.6325812490e-01
4.4199860868e-01
4.0437778504e-01
3.7315899215e-01
3.6569110393e-01
3.7718079159e-01
3.8755819084e-01
4.6726111169e-01
4.7704475302e-01
4.7613916666e-01
5.0598144265e-01
4.9078522047e-01
4.9052696857e-01
4.2056996547e-01
4.1225208058e-01
4.9397278542e-01
4.7933267402e-01
6.0602167534e-01
6.0667877311e-01
6.2940150326e-01
5.0720084796e-01
4.7366436737e-01
4.6497745210e-01
4.1728979252e-01
3.9351167738e-01
3.6649745751e-01
3.6859976511e-01
3.9825317443e-01
4.3730485593e-01
4.5474898099e-01
4.6757292718e-01
4.5507990788e-01
4.6261240394e-01
4.4289602976e-01
4.0598908887e-01
3.7455165288e-01
3.6475849337e-01
3.7781341170e-01
3.8741316916e-01
4.6546361703e-01
4.7761257735e-01
4.7572474841e-01
5.0589561573e-01
4.8878580813e-01
4.9213897431e-01
4.2020402992e-01
4.1258510379e-01
3.9107429150e-01
4.8781949017e-01
5.8920896336e-01
6.0687344832e-01
6.2101621761e-01
5.1247323257e-01
4.7586569868e-01
4.6193206993e-01
4.2062466524e-01
3.9584581527e-01
3.6825639848e-01
3.6892237591e-01
3.9640363400e-01
4.3609623891e-01
4.5457456773e-01
4.6510339327e-01
4.5407352937e-01
4.6053392977e-01
4.4518001344e-01
4.0810823561e-01
3.7577106496e-01
3.6606671180e-01
3.7594514039e-01
3.8949998909e-01
4.6265255335e-01
4.7716985854e-01
4.7727443079e-01
5.0052062392e-01
4.9290474861e-01
4.8620769832e-01
4.2652813044e-01
4.1055822541e-01
3.9388981461e-01
3.9123342899e-01
5.8061822708e-01
6.2447030119e-01
6.0622263377e-01
5.2294221408e-01
4.8033230191e-01
4.5656796416e-01
4.2378413623e-01
3.9743497358e-01
3.6766087096e-01
3.6950969164e-01
3.9420579232e-01
4.3217372214e-01
4.5514988524e-01
4.6173037453e-01
4.5694261154e-01
4.5716636301e-01
4.4749924973e-01
4.0913971552e-01
3.7699781346e-01
3.6592770262e-01
3.7137011570e-01
3.9369612167e-01
4.5731318143e-01
4.7571813853e-01
4.7975835393e-01
4.9623590230e-01
4.9877091105e-01
4.7946683520e-01
4.3602104572e-01
4.0588605587e-01
3.9372218392e-01
3.9257509908e-01
4.2534724097e-01
6.3833072051e-01
6.0924755982e-01
5.3123432822e-01
4.9401447671e-01
4.5521571410e-01
4.1966212548e-01
3.9955196434e-01
3.5270880862e-01
3.6062786467e-01
3.8441337143e-01
4.2109102782e-01
4.5303261553e-01
4.5869914597e-01
4.5828706806e-01
4.5465935386e-01
4.4720497049e-01
4.0623293069e-01
3.6878446963e-01
3.5898780501e-01
3.6036275786e-01
3.8528622554e-01
4.5677995155e-01
4.6663894756e-01
4.8178403505e-01
4.9459194040e-01
5.0141919704e-01
4.8621810434e-01
4.2859167050e-01
4.0875689336e-01
3.8020134012e-01
3.8481541638e-01
4.1658113878e-01
4.5259753014e-01
6.3582129345e-01
5.5874638003e-01
5.1331243727e-01
4.7266133162e-01
4.5099999158e-01
3.9539012174e-01
3.3501642474e-01
3.2579923739e-01
3.4707593782e-01
4.0184946330e-01
4.3589992053e-01
4.4594477787e-01
4.6086804786e-01
4.6575215776e-01
4.7465159283e-01
4.1895993811e-01
3.5783624129e-01
3.3198608329e-01
3.3602452953e-01
3.5634599294e-01
4.2268569004e-01
4.6355673026e-01
4.7323032721e-01
4.8406963069e-01
5.0275683593e-01
5.0478137421e-01
4.6003914049e-01
3.9708688968e-01
3.6604389253e-01
3.6520689379e-01
3.9613687022e-01
4.3756567017e-01
4.5965445912e-01

VECTORS Velocity double
-4.2430052682e-02 9.0349231179e-02 0.0
-5.0339112062e-02 1.1396889517e-01 0.0
-2.6497550531e-02 8.3050568763e-03 0.0
2.7662679547e-03 -3.6219337487e-02 0.0
-1.6205202492e-02 8.8187519600e-03 0.0
-1.9135560187e-04 -2.9613567822e-02 0.0
-6.1402791203e-02 8.5827052228e-02 0.0
3.2401194988e-03 1.1192971584e-02 0.0
-2.5568657583e-02 7.1232967969e-02 0.0
-3.3242829678e-02 5.0293387300e-02 0.0
-3.3297416503e-02 6.8307458324e-02 0.0
-5.8265500371e-02 7.3711494877e-02 0.0
-5.7193046829e-02 1.2071063281e-01 0.0
1.4275170265e-01 -3.5007997857e-02 0.0
1.4232548749e-01 3.1112992186e-03 0.0
1.5034430384e-01 -2.1433765492e-02 0.0
-3.2140183372e-02 -3.6357686195e-03 0.0
-3.2281257154e-02 -2.9791987292e-03 0.0
-3.6287130847e-02 3.2233951780e-03 0.0
-6.3622857758e-02 -1.3823041614e-02 0.0
-4.3223263303e-02 3.8391127289e-02 0.0
-3.5969594683e-02 1.5602680531e-02 0.0
-2.9076253610e-02 -6.2469515053e-03 0.0
4.6079335171e-03 1.5806630464e-02 0.0
6.7831297095e-03 2.0491777190e-02 0.0
8.6492380780e-03 5.1067416678e-03 0.0
1.4124140964e-03 1.6944601032e-02 0.0
1.3704695179e-02 7.4270455202e-04 0.0
2.6136922541e-02 -7.8041082373e-03 0.0
1.3846390533e-01 1.3291774437e-01 0.0
1.6061742546e-01 1.7276788529e-01 0.0
-5.1456996874e-02 -6.6936977140e-02 0.0
-1.6150122739e-02 9.6003374248e-02 0.0
-1.2622584703e-03 -8.1454984059e-02 0.0
1.7173903748e-02 -7.9353951336e-02 0.0
2.7641487659e-02 -2.2279363582e-02 0.0
2.7184231542e-02 -5.0373521048e-04 0.0
-3.0595932155e-02 -3.7099847154e-02 0.0
-2.4316426333e-04 8.4705882892e-04 0.0
-3.9261802817e-03 1.3053014514e-02 0.0
7.5979540814e-03 5.8405425520e-02 0.0
-1.2162858227e-02 3.4728230953e-02 0.0
-1.0197314301e-02 1.1067627616e-02 0.0
-2.4379975623e-02 -9.0615960775e-03 0.0
-3.7522081884e-02 -8.8240436593e-02 0.0
1.3160398734e-01 9.4747231022e-03 0.0
1.4004226016e-01 4.1102569173e-02 0.0
1.5570412529e-01 8.8005828814e-02 0.0
-1.2797079117e-02 5.4899083332e-02 0.0
-3.4611395647e-02 -1.6568064913e-02 0.0
-3.0670959532e-02 3.5701347219e-02 0.0
-7.5091355889e-02 2.7811931857e-02 0.0
-6.6999314186e-02 -2.3356767250e-02 0.0
-6.3889513560e-02 -8.8365861502e-02 0.0
-4.5946486161e-02 -1.2648144217e-01 0.0
-5.5818179939e-03 -8.4890457301e-02 0.0
-4.5682533449e-03 -3.8782310129e-02 0.0
-6.3700997405e-03 -3.9189258036e-02 0.0
1.5023882643e-03 -1.9330651834e-03 0.0
2.4193371270e-03 1.4736304379e-04 0.0
1.5619670904e-02 7.9983388588e-03 0.0
-1.3392550375e-02 4.7926894950e-02 0.0
-3.8496512481e-02 -6.6034014401e-02 0.0
-4.6649117431e-02 -1.1132973466e-01 0.0
-3.2899279628e-02 -2.5381924348e-02 0.0
-5.1245454491e-02 -9.1484855274e-02 0.0
2.3195096678e-02 -3.2984129136e-02 0.0
1.5432016353e-02 1.0424514269e-03 0.0
9.0461091275e-03 1.3408791935e-02 0.0
-7.7436370581e-03 1.5895936839e-02 0.0
-6.7433516486e-03 2.6180546842e-02 0.0
-6.7800658573e-03 3.6427666033e-02 0.0
7.9143310548e-03 6.6173540327e-02 0.0
-1.0122686255e-02 5.4709688302e-02 0.0
-1.0987963724e-02 2.8483833876e-02 0.0
-2.7643823306e-02 -5.8864226160e-03 0.0
-2.9278426710e-02 -4.6083299232e-02 0.0
1.3203475197e-01 -2.4555645570e-03 0.0
1.4405210749e-01 4.9004928329e-02 0.0
1.5101537979e-01 7.0766564754e-02 0.0
-1.2319346059e-02 6.2382583461e-02 0.0
-3.5003390575e-02 -3.6269698185e-03 0.0
-3.3047910363e-02 2.2948817445e-02 0.0
-6.8303777703e-02 4.0832043200e-02 0.0
-7.2047275542e-02 -3.1445945037e-02 0.0
-6.1817228074e-02 -9.4421856846e-02 0.0
-5.1112322323e-02 -1.3885623431e-01 0.0
-4.3434043761e-03 -1.0083783369e-01 0.0
-4.8563755916e-03 -5.2099169323e-02 0.0
-5.8103616337e-03 -3.8384415833e-02 0.0
4.3058934330e-04 -1.7694810347e-02 0.0
4.8246912374e-03 -2.0837034727e-03 0.0
2.3938203961e-02 2.8010608535e-02 0.0
-1.3243057542e-02 5.7074476634e-02 0.0
-4.6656938596e-02 -7.8302129858e-03 0.0
-4.9616247465e-02 -7.9263434192e-02 0.0
-3.8493745861e-02 -7.7110000451e-02 0.0
-5.4753086251e-02 -7.9711610399e-02 0.0
-2.9401029206e-02 -9.7476093552e-02 0.0
2.0935948649e-02 -4.2484656582e-03 0.0
1.0458214573e-02 2.2340964150e-02 0.0
-6.2225724211e-03 2.6328318587e-02 0.0
-8.5051103220e-03 3.0540629870e-02 0.0
-7.8636910558e-03 3.7181762216e-02 0.0
1.2566009526e-02 6.0372574057e-02 0.0
-7.3617302679e-03 5.5451967152e-02 0.0
-1.3250130624e-02 1.9479404282e-02 0.0
-2.6265320628e-02 -1.2598068898e-02 0.0
-2.9139585416e-02 -3.9314106974e-02 0.0
1.3240739254e-01 -6.1624617440e-03 0.0
1.4870155004e-01 6.1886883193e-02 0.0
1.4625284754e-01 6.4022314209e-02 0.0
-1.2240311549e-02 6.2734448702e-02 0.0
-3.7570857960e-02 -1.2060277876e-02 0.0
-3.2682937454e-02 1.5507946186e-02 0.0
-6.4985360233e-02 5.0172942224e-02 0.0
-7.6397024981e-02 -4.7726257709e-02 0.0
-5.7905184893e-02 -9.4001315488e-02 0.0
-5.6287256414e-02 -1.4118283785e-01 0.0
-2.1614784003e-03 -9.6967081145e-02 0.0
-5.6204633393e-03 -4.0866006115e-02 0.0
-5.8070868860e-03 -3.5303764732e-02 0.0
2.8701068175e-04 -2.0700123995e-02 0.0
5.3398415108e-03 1.2991826509e-03 0.0
2.6981484413e-02 2.8204429699e-02 0.0
-6.9809339878e-03 5.3056242530e-02 0.0
-3.8277828808e-02 -3.3523421796e-03 0.0
-4.9119538370e-02 -8.1075599169e-02 0.0
-3.9439569894e-02 -8.7506922654e-02 0.0
-4.8877929435e-02 -7.6200943088e-02 0.0
-2.3028182673e-02 -9.3835946661e-02 0.0
-2.8148339194e-02 -6.2015951303e-02 0.0
1.1126337561e-02 1.4816321870e-02 0.0
-5.8544225980e-03 2.7570878159e-02 0.0
-9.6418609104e-03 3.2913847609e-02 0.0
-7.0175470717e-03 4.1131222095e-02 0.0
1.3086742274e-02 6.2789478820e-02 0.0
-6.1527205707e-03 4.9813214690e-02 0.0
-1.0015411229e-02 1.6030192872e-02 0.0
-2.6495684797e-02 -1.7078065236e-02 0.0
-2.9011985478e-02 -3.7681473284e-02 0.0
1.3371987546e-01 2.7034492012e-03 0.0
1.4789718080e-01 5.7813251564e-02 0.0
1.4462835887e-01 6.5669995827e-02 0.0
-1.5891521008e-02 5.0529491967e-02 0.0
-3.6715690961e-02 -1.0142097041e-02 0.0
-3.2924877658e-02 1.0729023396e-02 0.0
-6.4497633762e-02 4.7562278060e-02 0.0
-7.5802897990e-02 -4.8887679805e-02 0.0
-5.9743297628e-02 -1.0026865342e-01 0.0
-5.6505079880e-02 -1.3873202735e-01 0.0
-2.7682193105e-03 -9.5337095762e-02 0.0
-5.1014033633e-03 -3.8444271290e-02 0.0
-5.9199868233e-03 -3.5122601516e-02 0.0
3.2237776669e-04 -2.0686559097e-02 0.0
5.1099059380e-03 -1.5194585775e-03 0.0
2.7705219622e-02 3.3477571512e-02 0.0
-4.5706706743e-05 4.7504963906e-02 0.0
-3.8881686949e-02 -5.5337947478e-03 0.0
-4.4994187157e-02 -8.6097659236e-02 0.0
-4.0658486951e-02 -9.6112701777e-02 0.0
-5.1465353435e-02 -7.8517784627e-02 0.0
-1.8071987187e-02 -8.5336994844e-02 0.0
-2.2060410267e-02 -5.4535879618e-02 0.0
-3.5190952981e-02 -1.6118857952e-02 0.0
-4.4542777016e-03 2.9648045672e-02 0.0
-1.4511297090e-02 3.2099736964e-02 0.0
-5.6823514128e-03 4.2829010643e-02 0.0
1.2251640564e-02 6.4356487687e-02 0.0
-5.6041243444e-03 4.8133865392e-02 0.0
-7.6647841723e-03 1.5204385781e-02 0.0
-2.5497071768e-02 -1.9427524637e-02 0.0
-2.9109713809e-02 -3.5398322055e-02 0.0
1.3509148878e-01 9.3824066710e-03 0.0
1.4668252971e-01 5.6197175194e-02 0.0
1.4488422066e-01 6.7109100924e-02 0.0
-1.8532535723e-02 4.3956759114e-02 0.0
-3.6166228580e-02 -1.3518124856e-02 0.0
-3.2915614125e-02 9.3851090924e-03 0.0
-6.4090222805e-02 4.4176919899e-02 0.0
-7.5513484530e-02 -5.1923004040e-02 0.0
-6.1007272400e-02 -1.0356244472e-01 0.0
-5.6421721651e-02 -1.3678546917e-01 0.0
-3.3094596387e-03 -9.3056630444e-02 0.0
-4.7215889541e-03 -3.5701095708e-02 0.0
-6.0014486797e-03 -3.3829778107e-02 0.0
3.5104795250e-04 -2.0195652761e-02 0.0
4.9233213531e-03 -2.7384289257e-03 0.0
2.8216390054e-02 3.7043498066e-02 0.0
5.9528161257e-04 4.5490614116e-02 0.0
-3.9257918991e-02 -1.0531355361e-02 0.0
-4.1778501035e-02 -8.7576115065e-02 0.0
-4.2100515377e-02 -1.0072967777e-01 0.0
-5.2831370554e-02 -7.6145963112e-02 0.0
-2.1611642610e-02 -7.3076439728e-02 0.0
-1.5061744423e-02 -4.8038860625e-02 0.0
-3.6604567162e-02 -1.1278129528e-02 0.0
-3.3401038273e-02 -1.7354470018e-02 0.0
-1.6535723672e-02 3.0180582003e-02 0.0
-1.5595876793e-03 4.5548305479e-02 0.0
1.1066788451e-02 6.5314018724e-02 0.0
-5.5523996414e-03 4.7966185020e-02 0.0
-7.0489866675e-03 1.5002015382e-02 0.0
-2.4732377615e-02 -2.0369951301e-02 0.0
-3.7269232330e-02 -3.6295703664e-02 0.0
1.3585348976e-01 1.4152215102e-02 0.0
1.4577716457e-01 5.4292598669e-02 0.0
1.4531401174e-01 6.8384635170e-02 0.0
-2.0406508059e-02 3.8267666845e-02 0.0
-3.5709356452e-02 -1.5282855585e-02 0.0
-3.2875360367e-02 9.9255978792e-03 0.0
-6.4004889293e-02 4.1111389490e-02 0.0
-7.5198886369e-02 -5.3629515360e-02 0.0
-6.1949999988e-02 -1.0522995731e-01 0.0
-5.6251547164e-02 -1.3578604150e-01 0.0
-3.7513225814e-03 -9.1301175340e-02 0.0
-4.4555633242e-03 -3.4237896940e-02 0.0
-6.0512896634e-03 -3.3186442476e-02 0.0
3.9240762897e-04 -1.9600349362e-02 0.0
4.7701427478e-03 -3.6990467324e-03 0.0
2.8502025123e-02 3.9339222411e-02 0.0
1.0569770384e-03 4.4177317846e-02 0.0
-4.0138201973e-02 -1.5292390677e-02 0.0
-4.0138739505e-02 -8.8256369275e-02 0.0
-4.3646206533e-02 -1.0305281988e-01 0.0
-5.3437381791e-02 -7.5159479206e-02 0.0
-2.3681128374e-02 -6.5974716536e-02 0.0
-1.9941206171e-02 -4.3542549617e-02 0.0
-3.7722072913e-02 -1.0048426132e-02 0.0
-3.1391980410e-02 -1.8138729612e-02 0.0
4.5939620517e-04 -1.2975645263e-02 0.0
-4.4766832012e-04 4.7161998292e-02 0.0
6.8244773111e-03 6.7719923464e-02 0.0
-5.5672933377e-03 4.9504388346e-02 0.0
-7.2338437687e-03 1.6641941178e-02 0.0
-2.4350635984e-02 -2.0198626427e-02 0.0
-4.3855233207e-02 -3.9107353209e-02 0.0
1.3042207985e-01 1.5984261928e-02 0.0
1.4515237337e-01 5.2383363879e-02 0.0
1.4575442646e-01 7.0087508890e-02 0.0
-2.1652095583e-02 3.4305120843e-02 0.0
-3.5342043546e-02 -1.6056958298e-02 0.0
-3.2792686666e-02 1.1119528819e-02 0.0
-6.4178209310e-02 3.8379643402e-02 0.0
-7.4796756748e-02 -5.4135627912e-02 0.0
-6.2679306929e-02 -1.0627931382e-01 0.0
-5.5930060641e-02 -1.3544007528e-01 0.0
-4.0937419820e-03 -9.0038956525e-02 0.0
-4.2896312172e-03 -3.3627662864e-02 0.0
-6.0857904990e-03 -3.2995809905e-02 0.0
4.5927763533e-04 -1.8908730365e-02 0.0
4.6469763862e-03 -4.6650546263e-03 0.0
2.8584239055e-02 4.0705900792e-02 0.0
1.4163546564e-03 4.3628097485e-02 0.0
-4.0727366663e-02 -1.8156462089e-02 0.0
-4.0052788582e-02 -8.8666757975e-02 0.0
-4.4648590849e-02 -1.0337998895e-01 0.0
-5.3419247294e-02 -7.4313383915e-02 0.0
-2.6423792878e-02 -6.2098736113e-02 0.0
-2.4030818306e-02 -3.9263321076e-02 0.0
-3.6333572821e-02 -9.5236812155e-03 0.0
-2.9497502074e-02 -1.8110879752e-02 0.0
2.8650999764e-03 -1.0503238969e-02 0.0
5.8797069609e-03 6.2353726543e-03 0.0
5.2555180470e-03 6.9260263089e-02 0.0
-9.3564303886e-03 5.0718156796e-02 0.0
-7.4115780842e-03 1.9962803824e-02 0.0
-2.3858641315e-02 -1.9086459534e-02 0.0
-4.6796217827e-02 -4.3613945823e-02 0.0
1.2625178481e-01 1.6515028159e-02 0.0
1.4478542493e-01 5.0777562169e-02 0.0
1.4636484706e-01 7.2284166459e-02 0.0
-2.2354499719e-02 3.1928816446e-02 0.0
-3.5087426266e-02 -1.6349700887e-02 0.0
-3.2658935137e-02 1.2998384482e-02 0.0
-6.4643424862e-02 3.6177056542e-02 0.0
-7.4275767242e-02 -5.3623415149e-02 0.0
-6.3246108038e-02 -1.0699693202e-01 0.0