# vtk DataFile Version 3.0
D2Q9 Periodic Hill Flow at timestep 0
ASCII
DATASET STRUCTURED_GRID
DIMENSIONS 33 16 1
POINTS 528 double
0.0000000000e+00 1.0381750000e+00 0.0
2.8125000000e-01 1.0161249342e+00 0.0
5.6250000000e-01 8.4579376806e-01 0.0
8.4375000000e-01 6.0969528778e-01 0.0
1.1250000000e+00 3.8986862790e-01 0.0
1.4062500000e+00 1.9393900392e-01 0.0
1.6875000000e+00 7.1699397761e-02 0.0
1.9687500000e+00 3.8175000000e-02 0.0
2.2500000000e+00 3.8175000000e-02 0.0
2.5312500000e+00 3.8175000000e-02 0.0
2.8125000000e+00 3.8175000000e-02 0.0
3.0937500000e+00 3.8175000000e-02 0.0
3.3750000000e+00 3.8175000000e-02 0.0
3.6562500000e+00 3.8175000000e-02 0.0
3.9375000000e+00 3.8175000000e-02 0.0
4.2187500000e+00 3.8175000000e-02 0.0
4.5000000000e+00 3.8175000000e-02 0.0
4.7812500000e+00 3.8175000000e-02 0.0
5.0625000000e+00 3.8175000000e-02 0.0
5.3437500000e+00 3.8175000000e-02 0.0
5.6250000000e+00 3.8175000000e-02 0.0
5.9062500000e+00 3.8175000000e-02 0.0
6.1875000000e+00 3.8175000000e-02 0.0
6.4687500000e+00 3.8175000000e-02 0.0
6.7500000000e+00 3.8175000000e-02 0.0
7.0312500000e+00 3.8175000000e-02 0.0
7.3125000000e+00 7.1699397761e-02 0.0
7.5937500000e+00 1.9393900392e-01 0.0
7.8750000000e+00 3.8986862790e-01 0.0
8.1562500000e+00 6.0969528778e-01 0.0
8.4375000000e+00 8.4579376806e-01 0.0
8.7187500000e+00 1.0161249342e+00 0.0
9.0000000000e+00 1.0381750000e+00 0.0
0.0000000000e+00 1.1145250000e+00 0.0
2.8125000000e-01 1.0933340277e+00 0.0
5.6250000000e-01 9.2963914074e-01 0.0
8.4375000000e-01 7.0273930254e-01 0.0
1.1250000000e+00 4.9147731772e-01 0.0
1.4062500000e+00 3.0318131545e-01 0.0
1.6875000000e+00 1.8570429135e-01 0.0
1.9687500000e+00 1.5348603896e-01 0.0
2.2500000000e+00 1.5348603896e-01 0.0
2.5312500000e+00 1.5348603896e-01 0.0
2.8125000000e+00 1.5348603896e-01 0.0
3.0937500000e+00 1.5348603896e-01 0.0
3.3750000000e+00 1.5348603896e-01 0.0
3.6562500000e+00 1.5348603896e-01 0.0
3.9375000000e+00 1.5348603896e-01 0.0
4.2187500000e+00 1.5348603896e-01 0.0
4.5000000000e+00 1.5348603896e-01 0.0
4.7812500000e+00 1.5348603896e-01 0.0
5.0625000000e+00 1.5348603896e-01 0.0
5.3437500000e+00 1.5348603896e-01 0.0
5.6250000000e+00 1.5348603896e-01 0.0
5.9062500000e+00 1.5348603896e-01 0.0
6.1875000000e+00 1.5348603896e-01 0.0
6.4687500000e+00 1.5348603896e-01 0.0
6.7500000000e+00 1.5348603896e-01 0.0
7.0312500000e+00 1.5348603896e-01 0.0
7.3125000000e+00 1.8570429135e-01 0.0
7.5937500000e+00 3.0318131545e-01 0.0
7.8750000000e+00 4.9147731772e-01 0.0
8.1562500000e+00 7.0273930254e-01 0.0
8.4375000000e+00 9.2963914074e-01 0.0
8.7187500000e+00 1.0933340277e+00 0.0
9.0000000000e+00 1.1145250000e+00 0.0
0.0000000000e+00 1.2077762062e+00 0.0
2.8125000000e-01 1.1876345004e+00 0.0
5.6250000000e-01 1.0320449316e+00 0.0
8.4375000000e-01 8.1637999156e-01 0.0
1.1250000000e+00 6.1557859980e-01 0.0
1.4062500000e+00 4.3660603476e-01 0.0
1.6875000000e+00 3.2494586098e-01 0.0
1.9687500000e+00 2.9432288862e-01 0.0
2.2500000000e+00 2.9432288862e-01 0.0
2.5312500000e+00 2.9432288862e-01 0.0
2.8125000000e+00 2.9432288862e-01 0.0
3.0937500000e+00 2.9432288862e-01 0.0
3.3750000000e+00 2.9432288862e-01 0.0
3.6562500000e+00 2.9432288862e-01 0.0
3.9375000000e+00 2.9432288862e-01 0.0
4.2187500000e+00 2.9432288862e-01 0.0
4.5000000000e+00 2.9432288862e-01 0.0
4.7812500000e+00 2.9432288862e-01 0.0
5.0625000000e+00 2.9432288862e-01 0.0
5.3437500000e+00 2.9432288862e-01 0.0
5.6250000000e+00 2.9432288862e-01 0.0
5.9062500000e+00 2.9432288862e-01 0.0
6.1875000000e+00 2.9432288862e-01 0.0
6.4687500000e+00 2.9432288862e-01 0.0
6.7500000000e+00 2.9432288862e-01 0.0
7.0312500000e+00 2.9432288862e-01 0.0
7.3125000000e+00 3.2494586098e-01 0.0
7.5937500000e+00 4.3660603476e-01 0.0
7.8750000000e+00 6.1557859980e-01 0.0
8.1562500000e+00 8.1637999156e-01 0.0
8.4375000000e+00 1.0320449316e+00 0.0
8.7187500000e+00 1.1876345004e+00 0.0
9.0000000000e+00 1.2077762062e+00 0.0
0.0000000000e+00 1.3193302628e+00 0.0
2.8125000000e-01 1.3004437680e+00 0.0
5.6250000000e-01 1.1545503861e+00 0.0
8.4375000000e-01 9.5232547010e-01 0.0
1.1250000000e+00 7.6403782092e-01 0.0
1.4062500000e+00 5.9621864774e-01 0.0
1.6875000000e+00 4.9151702468e-01 0.0
1.9687500000e+00 4.6280244544e-01 0.0
2.2500000000e+00 4.6280244544e-01 0.0
2.5312500000e+00 4.6280244544e-01 0.0
2.8125000000e+00 4.6280244544e-01 0.0
3.0937500000e+00 4.6280244544e-01 0.0
3.3750000000e+00 4.6280244544e-01 0.0
3.6562500000e+00 4.6280244544e-01 0.0
3.9375000000e+00 4.6280244544e-01 0.0
4.2187500000e+00 4.6280244544e-01 0.0
4.5000000000e+00 4.6280244544e-01 0.0
4.7812500000e+00 4.6280244544e-01 0.0
5.0625000000e+00 4.6280244544e-01 0.0
5.3437500000e+00 4.6280244544e-01 0.0
5.6250000000e+00 4.6280244544e-01 0.0
5.9062500000e+00 4.6280244544e-01 0.0
6.1875000000e+00 4.6280244544e-01 0.0
6.4687500000e+00 4.6280244544e-01 0.0
6.7500000000e+00 4.6280244544e-01 0.0
7.0312500000e+00 4.6280244544e-01 0.0
7.3125000000e+00 4.9151702468e-01 0.0
7.5937500000e+00 5.9621864774e-01 0.0
7.8750000000e+00 7.6403782092e-01 0.0
8.1562500000e+00 9.5232547010e-01 0.0
8.4375000000e+00 1.1545503861e+00 0.0
8.7187500000e+00 1.3004437680e+00 0.0
9.0000000000e+00 1.3193302628e+00 0.0
0.0000000000e+00 1.4495132424e+00 0.0
2.8125000000e-01 1.4320915722e+00 0.0
5.6250000000e-01 1.2975135877e+00 0.0
8.4375000000e-01 1.1109731070e+00 0.0
1.1250000000e+00 9.3728892765e-01 0.0
1.4062500000e+00 7.8248570235e-01 0.0
1.6875000000e+00 6.8590467030e-01 0.0
1.9687500000e+00 6.5941717548e-01 0.0
2.2500000000e+00 6.5941717548e-01 0.0
2.5312500000e+00 6.5941717548e-01 0.0
2.8125000000e+00 6.5941717548e-01 0.0
3.0937500000e+00 6.5941717548e-01 0.0
3.3750000000e+00 6.5941717548e-01 0.0
3.6562500000e+00 6.5941717548e-01 0.0
3.9375000000e+00 6.5941717548e-01 0.0
4.2187500000e+00 6.5941717548e-01 0.0
4.5000000000e+00 6.5941717548e-01 0.0
4.7812500000e+00 6.5941717548e-01 0.0
5.0625000000e+00 6.5941717548e-01 0.0
5.3437500000e+00 6.5941717548e-01 0.0
5.6250000000e+00 6.5941717548e-01 0.0
5.9062500000e+00 6.5941717548e-01 0.0
6.1875000000e+00 6.5941717548e-01 0.0
6.4687500000e+00 6.5941717548e-01 0.0
6.7500000000e+00 6.5941717548e-01 0.0
7.0312500000e+00 6.5941717548e-01 0.0
7.3125000000e+00 6.8590467030e-01 0.0
7.5937500000e+00 7.8248570235e-01 0.0
7.8750000000e+00 9.3728892765e-01 0.0
8.1562500000e+00 1.1109731070e+00 0.0
8.4375000000e+00 1.2975135877e+00 0.0
8.7187500000e+00 1.4320915722e+00 0.0
9.0000000000e+00 1.4495132424e+00 0.0
0.0000000000e+00 1.5971143014e+00 0.0
2.8125000000e-01 1.5813534446e+00 0.0
5.6250000000e-01 1.4596048228e+00 0.0
8.4375000000e-01 1.2908473063e+00 0.0
1.1250000000e+00 1.1337204957e+00 0.0
1.4062500000e+00 9.9367471176e-01 0.0
1.6875000000e+00 9.0630078063e-01 0.0
1.9687500000e+00 8.8233834724e-01 0.0
2.2500000000e+00 8.8233834724e-01 0.0
2.5312500000e+00 8.8233834724e-01 0.0
2.8125000000e+00 8.8233834724e-01 0.0
3.0937500000e+00 8.8233834724e-01 0.0
3.3750000000e+00 8.8233834724e-01 0.0
3.6562500000e+00 8.8233834724e-01 0.0
3.9375000000e+00 8.8233834724e-01 0.0
4.2187500000e+00 8.8233834724e-01 0.0
4.5000000000e+00 8.8233834724e-01 0.0
4.7812500000e+00 8.8233834724e-01 0.0
5.0625000000e+00 8.8233834724e-01 0.0
5.3437500000e+00 8.8233834724e-01 0.0
5.6250000000e+00 8.8233834724e-01 0.0
5.9062500000e+00 8.8233834724e-01 0.0
6.1875000000e+00 8.8233834724e-01 0.0
6.4687500000e+00 8.8233834724e-01 0.0
6.7500000000e+00 8.8233834724e-01 0.0
7.0312500000e+00 8.8233834724e-01 0.0
7.3125000000e+00 9.0630078063e-01 0.0
7.5937500000e+00 9.9367471176e-01 0.0
7.8750000000e+00 1.1337204957e+00 0.0
8.1562500000e+00 1.2908473063e+00 0.0
8.4375000000e+00 1.4596048228e+00 0.0
8.7187500000e+00 1.5813534446e+00 0.0
9.0000000000e+00 1.5971143014e+00 0.0
0.0000000000e+00 1.7590868131e+00 0.0
2.8125000000e-01 1.7451484779e+00 0.0
5.6250000000e-01 1.6374783736e+00 0.0
8.4375000000e-01 1.4882352927e+00 0.0
1.1250000000e+00 1.3492779901e+00 0.0
1.4062500000e+00 1.2254265334e+00 0.0
1.6875000000e+00 1.1481561697e+00 0.0
1.9687500000e+00 1.1269646551e+00 0.0
2.2500000000e+00 1.1269646551e+00 0.0
2.5312500000e+00 1.1269646551e+00 0.0
2.8125000000e+00 1.1269646551e+00 0.0
3.0937500000e+00 1.1269646551e+00 0.0
3.3750000000e+00 1.1269646551e+00 0.0
3.6562500000e+00 1.1269646551e+00 0.0
3.9375000000e+00 1.1269646551e+00 0.0
4.2187500000e+00 1.1269646551e+00 0.0
4.5000000000e+00 1.1269646551e+00 0.0
4.7812500000e+00 1.1269646551e+00 0.0
5.0625000000e+00 1.1269646551e+00 0.0
5.3437500000e+00 1.1269646551e+00 0.0
5.6250000000e+00 1.1269646551e+00 0.0
5.9062500000e+00 1.1269646551e+00 0.0
6.1875000000e+00 1.1269646551e+00 0.0
6.4687500000e+00 1.1269646551e+00 0.0
6.7500000000e+00 1.1269646551e+00 0.0
7.0312500000e+00 1.1269646551e+00 0.0
7.3125000000e+00 1.1481561697e+00 0.0
7.5937500000e+00 1.2254265334e+00 0.0
7.8750000000e+00 1.3492779901e+00 0.0
8.1562500000e+00 1.4882352927e+00 0.0
8.4375000000e+00 1.6374783736e+00 0.0
8.7187500000e+00 1.7451484779e+00 0.0
9.0000000000e+00 1.7590868131e+00 0.0
0.0000000000e+00 1.9305824874e+00 0.0
2.8125000000e-01 1.9185738289e+00 0.0
5.6250000000e-01 1.8258099875e+00 0.0
8.4375000000e-01 1.6972286922e+00 0.0
1.1250000000e+00 1.5775091725e+00 0.0
1.4062500000e+00 1.4708041873e+00 0.0
1.6875000000e+00 1.4042314297e+00 0.0
1.9687500000e+00 1.3859737498e+00 0.0
2.2500000000e+00 1.3859737498e+00 0.0
2.5312500000e+00 1.3859737498e+00 0.0
2.8125000000e+00 1.3859737498e+00 0.0
3.0937500000e+00 1.3859737498e+00 0.0
3.3750000000e+00 1.3859737498e+00 0.0
3.6562500000e+00 1.3859737498e+00 0.0
3.9375000000e+00 1.3859737498e+00 0.0
4.2187500000e+00 1.3859737498e+00 0.0
4.5000000000e+00 1.3859737498e+00 0.0
4.7812500000e+00 1.3859737498e+00 0.0
5.0625000000e+00 1.3859737498e+00 0.0
5.3437500000e+00 1.3859737498e+00 0.0
5.6250000000e+00 1.3859737498e+00 0.0
5.9062500000e+00 1.3859737498e+00 0.0
6.1875000000e+00 1.3859737498e+00 0.0
6.4687500000e+00 1.3859737498e+00 0.0
6.7500000000e+00 1.3859737498e+00 0.0
7.0312500000e+00 1.3859737498e+00 0.0
7.3125000000e+00 1.4042314297e+00 0.0
7.5937500000e+00 1.4708041873e+00 0.0
[...]
POINT_DATA 528

SCALARS Density double 1
LOOKUP_TABLE default
1.0713395234e+00
1.0713395234e+00
1.0000000000e+00
1.0000000000e+00
1.0000000000e+00
1.0000000000e+00
1.0713395234e+00
1.0713395234e+00
1.0713395234e+00
1.0713395234e+00
1.0713395234e+00
1.0713395234e+00
1.0713395234e+00
1.0713395234e+00
1.0713395234e+00
1.0713395234e+00
9.8733263720e-01
9.8733263720e-01
9.8733263720e-01
9.8733263720e-01
9.8733263720e-01
9.8733263720e-01
9.8733263720e-01
9.8733263720e-01
9.8733263720e-01
9.8733263720e-01
9.8733263720e-01
9.8733263720e-01
9.8733263720e-01
9.8733263720e-01
9.8733263720e-01
9.8733263720e-01
9.8733263720e-01
1.0891744043e+00
1.0891744043e+00
1.0713395234e+00
1.0713395234e+00
1.0891744043e+00
1.0891744043e+00
1.0891744043e+00
1.0891744043e+00
1.0891744043e+00
1.0891744043e+00
1.0892110013e+00
1.0888245342e+00
1.0907056380e+00
1.0851967168e+00
1.0961125314e+00
9.9339712653e-01
9.8416579651e-01
9.8416579651e-01
9.8416579651e-01
9.8416579651e-01
9.8416579651e-01
9.8416579651e-01
9.8416579651e-01
9.8416579651e-01
9.8416579651e-01
9.8416579651e-01
9.8416579651e-01
9.8416579651e-01
9.8416579651e-01
9.8416579651e-01
9.8416579651e-01
9.8416579651e-01
9.8416579651e-01
1.0891744043e+00
1.0891744043e+00
1.0891744043e+00
1.0891744043e+00
1.0891744043e+00
1.0891744043e+00
1.0891744043e+00
1.0891744043e+00
1.0891744043e+00
1.0891744043e+00
1.0891544914e+00
1.0893751602e+00
1.0882061991e+00
1.0922945203e+00
9.9365875265e-01
9.8322338473e-01
9.8416579651e-01
9.8416579651e-01
9.8416579651e-01
9.8416579651e-01
9.8416579651e-01
9.8416579651e-01
9.8416579651e-01
9.8416579651e-01
9.8416579651e-01
9.8416579651e-01
9.8416579651e-01
9.8416579651e-01
9.8416579651e-01
9.8416579651e-01
9.8416579651e-01
9.8416579651e-01
9.8416789585e-01
1.0891744043e+00
1.0891744043e+00
1.0891744043e+00
1.0891744043e+00
1.0891744043e+00
1.0891744043e+00
1.0891744043e+00
1.0891744043e+00
1.0891744043e+00
1.0891744043e+00
1.0891986055e+00
1.0889058926e+00
1.0907776307e+00
9.9379072106e-01
9.8178752659e-01
9.8464749535e-01
9.8416579651e-01
9.8416579651e-01
9.8416579651e-01
9.8416579651e-01
9.8416579651e-01
9.8416579651e-01
9.8416579651e-01
9.8416579651e-01
9.8416579651e-01
9.8416579651e-01
9.8416579651e-01
9.8416579651e-01
9.8416579651e-01
9.8416579651e-01
9.8416579651e-01
9.8416579651e-01
9.8416255477e-01
1.0891744043e+00
1.0891744043e+00
1.0891744043e+00
1.0891744043e+00
1.0891744043e+00
1.0891744043e+00
1.0891744043e+00
1.0891744043e+00
1.0891744043e+00
1.0892074788e+00
1.0888470761e+00
1.0909623896e+00
9.9206738704e-01
9.8220509913e-01
9.8454337161e-01
9.8416579651e-01
9.8416579651e-01
9.8416579651e-01
9.8416579651e-01
9.8416579651e-01
9.8416579651e-01
9.8416579651e-01
9.8416579651e-01
9.8416579651e-01
9.8416579651e-01
9.8416579651e-01
9.8416579651e-01
9.8416579651e-01
9.8416579651e-01
9.8416579651e-01
9.8416579651e-01
9.8417711171e-01
9.8421820104e-01
1.0891744043e+00
1.0891744043e+00
1.0891744043e+00
1.0891744043e+00
1.0891744043e+00
1.0891744043e+00
1.0891744043e+00
1.0891744043e+00
1.0892198497e+00
1.0887765414e+00
1.0911341840e+00
9.9079836941e-01
9.8258234727e-01
9.8445014197e-01
9.8416579651e-01
9.8416579651e-01
9.8416579651e-01
9.8416579651e-01
9.8416579651e-01
9.8416579651e-01
9.8416579651e-01
9.8416579651e-01
9.8416579651e-01
9.8416579651e-01
9.8416579651e-01
9.8416579651e-01
9.8416579651e-01
9.8416579651e-01
9.8416579651e-01
9.8416579651e-01
9.8419785355e-01
9.8405759351e-01
9.8383411485e-01
1.0891744043e+00
1.0891744043e+00
1.0891744043e+00
1.0891744043e+00
1.0891744043e+00
1.0891744043e+00
1.0891744043e+00
1.0892401979e+00
1.0886848106e+00
1.0913267373e+00
9.8989652649e-01
9.8289057470e-01
9.8437554840e-01
9.8416579651e-01
9.8416579651e-01
9.8416579651e-01
9.8416579651e-01
9.8416579651e-01
9.8416579651e-01
9.8416579651e-01
9.8416579651e-01
9.8416579651e-01
9.8416579651e-01
9.8416579651e-01
9.8416579651e-01
9.8416579651e-01
9.8416579651e-01
9.8416579651e-01
9.8416579651e-01
9.8419447936e-01
9.8387009672e-01
9.8474180392e-01
1.0002967204e+00
1.0891744043e+00
1.0891744043e+00
1.0891744043e+00
1.0891744043e+00
1.0891744043e+00
1.0891744043e+00
1.0893531512e+00
1.0885416667e+00
1.0915660439e+00
9.8929427346e-01
9.8312792376e-01
9.8431966700e-01
9.8416579651e-01
9.8416579651e-01
9.8416579651e-01
9.8416579651e-01
9.8416579651e-01
9.8416579651e-01
9.8416579651e-01
9.8416579651e-01
9.8416579651e-01
9.8416579651e-01
9.8416579651e-01
9.8416579651e-01
9.8416579651e-01
9.8416579651e-01
9.8416579651e-01
9.8416579651e-01
9.8419073720e-01
9.8393976414e-01
9.8563727054e-01
1.0015937087e+00
1.0021130611e+00
1.0891744043e+00
1.0891744043e+00
1.0891744043e+00
1.0891744043e+00
1.0891744043e+00
1.0895152490e+00
1.0877378024e+00
1.0919520000e+00
9.8894675628e-01
9.8330242735e-01
9.8427961932e-01
9.8416579651e-01
9.8416579651e-01
9.8416579651e-01
9.8416579651e-01
9.8416579651e-01
9.8416579651e-01
9.8416579651e-01
9.8416579651e-01
9.8416579651e-01
9.8416579651e-01
9.8416579651e-01
9.8416579651e-01
9.8416579651e-01
9.8416579651e-01
9.8416579651e-01
9.8416579651e-01
9.8417583635e-01
9.8400262767e-01
9.8511550213e-01
1.0022702104e+00
1.0019066551e+00
1.0018430097e+00
1.0891744043e+00
1.0891744043e+00
1.0891744043e+00
1.0891744043e+00
1.0896864804e+00
1.0867943103e+00
1.0945580080e+00
9.8890554587e-01
9.8342449575e-01
9.8425183306e-01
9.8416579651e-01
9.8416579651e-01
9.8416579651e-01
9.8416579651e-01
9.8416579651e-01
9.8416579651e-01
9.8416579651e-01
9.8416579651e-01
9.8416579651e-01
9.8416579651e-01
9.8416579651e-01
9.8416579651e-01
9.8416579651e-01
9.8416579651e-01
9.8416579651e-01
9.8416579651e-01
9.8414940401e-01
9.8413083568e-01
9.8473357366e-01
1.0019345495e+00
1.0018135117e+00
1.0018630820e+00
1.0018691915e+00
1.0891744043e+00
1.0891744043e+00
1.0891744043e+00
1.0898673678e+00
1.0860274973e+00
1.0969194134e+00
9.9096880196e-01
9.8349507282e-01
9.8423303706e-01
9.8416579651e-01
9.8416579651e-01
9.8416579651e-01
9.8416579651e-01
9.8416579651e-01
9.8416579651e-01
9.8416579651e-01
9.8416579651e-01
9.8416579651e-01
9.8416579651e-01
9.8416579651e-01
9.8416579651e-01
9.8416579651e-01
9.8416579651e-01
9.8416579651e-01
9.8416579651e-01
9.8412105341e-01
9.8430157355e-01
9.8421351010e-01
1.0016795143e+00
1.0018720547e+00
1.0018706081e+00
1.0018691915e+00
1.0018691915e+00
1.0891744043e+00
1.0891744043e+00
1.0900232231e+00
1.0854254251e+00
1.0981387505e+00
9.9296394442e-01
9.8334655412e-01
9.8422113871e-01
9.8416579651e-01
9.8416579651e-01
9.8416579651e-01
9.8416579651e-01
9.8416579651e-01
9.8416579651e-01
9.8416579651e-01
9.8416579651e-01
9.8416579651e-01
9.8416579651e-01
9.8416579651e-01
9.8416579651e-01
9.8416579651e-01
9.8416579651e-01
9.8416579651e-01
9.8416579651e-01
9.8410278574e-01
9.8444875026e-01
9.8369420356e-01
1.0013488646e+00
1.0019064484e+00
1.0018665507e+00
1.0018691915e+00
1.0018691915e+00
1.0018691915e+00
1.0891744043e+00
1.0898357044e+00
1.0851944239e+00
1.0984159970e+00
9.9456097381e-01
9.8327322702e-01
9.8422319499e-01
9.8416579651e-01
9.8416579651e-01
9.8416579651e-01
9.8416579651e-01
9.8416579651e-01
9.8416579651e-01
9.8416579651e-01
9.8416579651e-01
9.8416579651e-01
9.8416579651e-01
9.8416579651e-01
9.8416579651e-01
9.8416579651e-01
9.8416579651e-01
9.8416579651e-01
9.8416579651e-01
9.8407932432e-01
9.8452542865e-01
9.8335908739e-01
1.0009934777e+00
1.0019390614e+00
1.0018647746e+00
1.0018691915e+00
1.0018691915e+00
1.0018691915e+00
1.0018691915e+00
1.0891744043e+00
1.0886927047e+00
1.0931651580e+00
9.9976097550e-01
9.8202418066e-01
9.8450936865e-01
9.8413842217e-01
9.8416579651e-01
9.8416579651e-01
9.8416579651e-01
9.8416579651e-01
9.8416579651e-01
9.8416579651e-01
9.8416579651e-01
9.8416579651e-01
9.8416579651e-01
9.8416579651e-01
9.8416579651e-01
9.8416579651e-01
9.8416579651e-01
9.8416579651e-01
9.8416579651e-01
9.8416579651e-01
9.8425019134e-01
9.8373706437e-01
1.0003224297e+00
1.0020964146e+00
1.0018366908e+00
1.0018716844e+00
1.0018691915e+00
1.0018691915e+00
1.0018691915e+00
1.0018691915e+00
1.0891744043e+00
1.0896775954e+00
1.0046249613e+00
9.8061171271e-01
9.8529167200e-01
9.8393470588e-01
9.8418706033e-01
9.8416579651e-01
9.8416579651e-01
9.8416579651e-01
9.8416579651e-01
9.8416579651e-01
9.8416579651e-01
9.8416579651e-01
9.8416579651e-01
9.8416579651e-01
9.8416579651e-01
9.8416579651e-01
9.8416579651e-01
9.8416579651e-01
9.8416579651e-01
9.8416579651e-01
9.8416579651e-01
9.8402318949e-01
9.9960764269e-01
1.0024014628e+00
1.0017205699e+00
1.0018953762e+00
1.0018670507e+00
1.0018691915e+00
1.0018691915e+00
1.0018691915e+00
1.0018691915e+00
1.0891744043e+00
1.0051503058e+00
9.8293147407e-01
9.8555361466e-01
9.8343099538e-01
9.8436938134e-01
9.8414228931e-01
9.8416579651e-01
9.8416579651e-01
9.8416579651e-01
9.8416579651e-01
9.8416579651e-01
9.8416579651e-01
9.8416579651e-01
9.8416579651e-01
9.8416579651e-01
9.8416579651e-01
9.8416579651e-01
9.8416579651e-01
9.8416579651e-01
9.8416579651e-01
9.8416579651e-01
9.8416579651e-01
9.9883944236e-01
1.0028158730e+00
1.0013857263e+00
1.0020456904e+00
1.0018322994e+00
1.0018724354e+00
1.0018691915e+00
1.0018691915e+00
1.0018691915e+00
1.0018691915e+00

VECTORS Velocity double
6.6589089503e-02 2.5907357107e-17 0.0
6.6589089503e-02 5.1814714213e-17 0.0
5.5511151231e-17 2.7755575616e-17 0.0
2.7755575616e-17 0.0000000000e+00 0.0
0.0000000000e+00 5.5511151231e-17 0.0
0.0000000000e+00 0.0000000000e+00 0.0
6.6589089503e-02 5.1814714213e-17 0.0
6.6589089503e-02 -5.1814714213e-17 0.0
6.6589089503e-02 -7.7722071320e-17 0.0
6.6589089503e-02 -7.7722071320e-17 0.0
6.6589089503e-02 -7.7722071320e-17 0.0
6.6589089503e-02 -7.7722071320e-17 0.0
6.6589089503e-02 -7.7722071320e-17 0.0
6.6589089503e-02 -7.7722071320e-17 0.0
6.6589089503e-02 -7.7722071320e-17 0.0
6.6589089503e-02 -7.7722071320e-17 0.0
-1.2829883585e-02 -8.4335029259e-17 0.0
-1.2829883585e-02 -8.4335029259e-17 0.0
-1.2829883585e-02 -8.4335029259e-17 0.0
-1.2829883585e-02 -8.4335029259e-17 0.0
-1.2829883585e-02 -8.4335029259e-17 0.0
-1.2829883585e-02 -8.4335029259e-17 0.0
-1.2829883585e-02 -8.4335029259e-17 0.0
-1.2829883585e-02 -8.4335029259e-17 0.0
-1.2829883585e-02 -8.4335029259e-17 0.0
-1.2829883585e-02 -5.6223352839e-17 0.0
-1.2829883585e-02 5.6223352839e-17 0.0
-1.2829883585e-02 2.8111676420e-17 0.0
-1.2829883585e-02 8.4335029259e-17 0.0
-1.2829883585e-02 2.8111676420e-17 0.0
-1.2829883585e-02 2.8111676420e-17 0.0
-1.2829883585e-02 8.4335029259e-17 0.0
-1.2829883585e-02 2.8111676420e-17 0.0
8.1873393202e-02 1.6374678640e-02 0.0
8.1873393202e-02 1.6374678640e-02 0.0
6.6589089503e-02 -7.7722071320e-17 0.0
6.6589089503e-02 -1.0362942843e-16 0.0
8.1873393202e-02 1.6374678640e-02 0.0
8.1873393202e-02 1.6374678640e-02 0.0
8.1873393202e-02 1.6374678640e-02 0.0
8.1873393202e-02 1.6374678640e-02 0.0
8.1873393202e-02 1.6374678640e-02 0.0
8.1873393202e-02 1.6374678640e-02 0.0
8.1904241873e-02 1.6407728041e-02 0.0
8.1578373182e-02 1.6058612032e-02 0.0
8.3162344452e-02 1.7755583058e-02 0.0
7.8508085634e-02 1.2769291634e-02 0.0
8.7684912471e-02 2.2600788924e-02 0.0
-6.6467611921e-03 6.1047985384e-03 0.0
-1.6088959350e-02 -3.2177918700e-03 0.0
-1.6088959350e-02 -3.2177918700e-03 0.0
-1.6088959350e-02 -3.2177918700e-03 0.0
-1.6088959350e-02 -3.2177918700e-03 0.0
-1.6088959350e-02 -3.2177918700e-03 0.0
-1.6088959350e-02 -3.2177918700e-03 0.0
-1.6088959350e-02 -3.2177918700e-03 0.0
-1.6088959350e-02 -3.2177918700e-03 0.0
-1.6088959350e-02 -3.2177918700e-03 0.0
-1.6088959350e-02 -3.2177918700e-03 0.0
-1.6088959350e-02 -3.2177918700e-03 0.0
-1.6088959350e-02 -3.2177918700e-03 0.0
-1.6088959350e-02 -3.2177918700e-03 0.0
-1.6088959350e-02 -3.2177918700e-03 0.0
-1.6088959350e-02 -3.2177918700e-03 0.0
-1.6088959350e-02 -3.2177918700e-03 0.0
-1.6088959350e-02 -3.2177918700e-03 0.0
8.1873393202e-02 1.6374678640e-02 0.0
8.1873393202e-02 1.6374678640e-02 0.0
8.1873393202e-02 1.6374678640e-02 0.0
8.1873393202e-02 1.6374678640e-02 0.0
8.1873393202e-02 1.6374678640e-02 0.0
8.1873393202e-02 1.6374678640e-02 0.0
8.1873393202e-02 1.6374678640e-02 0.0
8.1873393202e-02 1.6374678640e-02 0.0
8.1873393202e-02 1.6374678640e-02 0.0
8.1873393202e-02 1.6374678640e-02 0.0
8.1856607175e-02 1.6356695106e-02 0.0
8.2042590518e-02 1.6555946412e-02 0.0
8.1056512228e-02 1.5499521766e-02 0.0
8.4496002283e-02 1.9184383403e-02 0.0
-6.3817153878e-03 6.3664869113e-03 0.0
-1.7062872517e-02 -4.1793681253e-03 0.0
-1.6088959350e-02 -3.2177918700e-03 0.0
-1.6088959350e-02 -3.2177918700e-03 0.0
-1.6088959350e-02 -3.2177918700e-03 0.0
-1.6088959350e-02 -3.2177918700e-03 0.0
-1.6088959350e-02 -3.2177918700e-03 0.0
-1.6088959350e-02 -3.2177918700e-03 0.0
-1.6088959350e-02 -3.2177918700e-03 0.0
-1.6088959350e-02 -3.2177918700e-03 0.0
-1.6088959350e-02 -3.2177918700e-03 0.0
-1.6088959350e-02 -3.2177918700e-03 0.0
-1.6088959350e-02 -3.2177918700e-03 0.0
-1.6088959350e-02 -3.2177918700e-03 0.0
-1.6088959350e-02 -3.2177918700e-03 0.0
-1.6088959350e-02 -3.2177918700e-03 0.0
-1.6088959350e-02 -3.2177918700e-03 0.0
-1.6088959350e-02 -3.2177918700e-03 0.0
-1.6086791911e-02 -3.2156518863e-03 0.0
8.1873393202e-02 1.6374678640e-02 0.0
8.1873393202e-02 1.6374678640e-02 0.0
8.1873393202e-02 1.6374678640e-02 0.0
8.1873393202e-02 1.6374678640e-02 0.0
8.1873393202e-02 1.6374678640e-02 0.0
8.1873393202e-02 1.6374678640e-02 0.0
8.1873393202e-02 1.6374678640e-02 0.0
8.1873393202e-02 1.6374678640e-02 0.0
8.1873393202e-02 1.6374678640e-02 0.0
8.1873393202e-02 1.6374678640e-02 0.0
8.1893793370e-02 1.6396534146e-02 0.0
8.1646993727e-02 1.6132127934e-02 0.0
8.3222856945e-02 1.7820412484e-02 0.0
-6.2480749784e-03 6.4984344492e-03 0.0
-1.8550320631e-02 -5.6479741942e-03 0.0
-1.5591879045e-02 -2.7270082613e-03 0.0
-1.6088959350e-02 -3.2177918700e-03 0.0
-1.6088959350e-02 -3.2177918700e-03 0.0
-1.6088959350e-02 -3.2177918700e-03 0.0
-1.6088959350e-02 -3.2177918700e-03 0.0
-1.6088959350e-02 -3.2177918700e-03 0.0
-1.6088959350e-02 -3.2177918700e-03 0.0
-1.6088959350e-02 -3.2177918700e-03 0.0
-1.6088959350e-02 -3.2177918700e-03 0.0
-1.6088959350e-02 -3.2177918700e-03 0.0
-1.6088959350e-02 -3.2177918700e-03 0.0
-1.6088959350e-02 -3.2177918700e-03 0.0
-1.6088959350e-02 -3.2177918700e-03 0.0
-1.6088959350e-02 -3.2177918700e-03 0.0
-1.6088959350e-02 -3.2177918700e-03 0.0
-1.6088959350e-02 -3.2177918700e-03 0.0
-1.6088959350e-02 -3.2177918700e-03 0.0
-1.6092306250e-02 -3.2210963736e-03 0.0
8.1873393202e-02 1.6374678640e-02 0.0
8.1873393202e-02 1.6374678640e-02 0.0
8.1873393202e-02 1.6374678640e-02 0.0
8.1873393202e-02 1.6374678640e-02 0.0
8.1873393202e-02 1.6374678640e-02 0.0
8.1873393202e-02 1.6374678640e-02 0.0
8.1873393202e-02 1.6374678640e-02 0.0
8.1873393202e-02 1.6374678640e-02 0.0
8.1873393202e-02 1.6374678640e-02 0.0
8.1901272726e-02 1.6404547076e-02 0.0
8.1597386825e-02 1.6078982100e-02 0.0
8.3378116828e-02 1.7986748532e-02 0.0
-7.9960424675e-03 4.7726090985e-03 0.0
-1.8117296361e-02 -5.2204351998e-03 0.0
-1.5699286427e-02 -2.8330550753e-03 0.0
-1.6088959350e-02 -3.2177918700e-03 0.0
-1.6088959350e-02 -3.2177918700e-03 0.0
-1.6088959350e-02 -3.2177918700e-03 0.0
-1.6088959350e-02 -3.2177918700e-03 0.0
-1.6088959350e-02 -3.2177918700e-03 0.0
-1.6088959350e-02 -3.2177918700e-03 0.0
-1.6088959350e-02 -3.2177918700e-03 0.0
-1.6088959350e-02 -3.2177918700e-03 0.0
-1.6088959350e-02 -3.2177918700e-03 0.0
-1.6088959350e-02 -3.2177918700e-03 0.0
-1.6088959350e-02 -3.2177918700e-03 0.0
-1.6088959350e-02 -3.2177918700e-03 0.0
-1.6088959350e-02 -3.2177918700e-03 0.0
-1.6088959350e-02 -3.2177918700e-03 0.0
-1.6088959350e-02 -3.2177918700e-03 0.0
-1.6088959350e-02 -3.2177918700e-03 0.0
-1.6077277255e-02 -3.2234533797e-03 0.0
-1.6034857861e-02 -3.1643757038e-03 0.0
8.1873393202e-02 1.6374678640e-02 0.0
8.1873393202e-02 1.6374678640e-02 0.0
8.1873393202e-02 1.6374678640e-02 0.0
8.1873393202e-02 1.6374678640e-02 0.0
8.1873393202e-02 1.6374678640e-02 0.0
8.1873393202e-02 1.6374678640e-02 0.0
8.1873393202e-02 1.6374678640e-02 0.0
8.1873393202e-02 1.6374678640e-02 0.0
8.1911700165e-02 1.6415718403e-02 0.0
8.1537889562e-02 1.6015240330e-02 0.0
8.3522435014e-02 1.8141362309e-02 0.0
-9.2870869298e-03 3.4979187647e-03 0.0
-1.7726405099e-02 -4.8344954996e-03 0.0
-1.5795475428e-02 -2.9280256156e-03 0.0
-1.6088959350e-02 -3.2177918700e-03 0.0
-1.6088959350e-02 -3.2177918700e-03 0.0
-1.6088959350e-02 -3.2177918700e-03 0.0
-1.6088959350e-02 -3.2177918700e-03 0.0
-1.6088959350e-02 -3.2177918700e-03 0.0
-1.6088959350e-02 -3.2177918700e-03 0.0
-1.6088959350e-02 -3.2177918700e-03 0.0
-1.6088959350e-02 -3.2177918700e-03 0.0
-1.6088959350e-02 -3.2177918700e-03 0.0
-1.6088959350e-02 -3.2177918700e-03 0.0
-1.6088959350e-02 -3.2177918700e-03 0.0
-1.6088959350e-02 -3.2177918700e-03 0.0
-1.6088959350e-02 -3.2177918700e-03 0.0
-1.6088959350e-02 -3.2177918700e-03 0.0
-1.6088959350e-02 -3.2177918700e-03 0.0
-1.6088959350e-02 -3.2177918700e-03 0.0
-1.6055863558e-02 -3.2227497343e-03 0.0
-1.6200684389e-02 -3.1483178092e-03 0.0
-1.6431515140e-02 -3.5560083812e-03 0.0
8.1873393202e-02 1.6374678640e-02 0.0
8.1873393202e-02 1.6374678640e-02 0.0
8.1873393202e-02 1.6374678640e-02 0.0
8.1873393202e-02 1.6374678640e-02 0.0
8.1873393202e-02 1.6374678640e-02 0.0
8.1873393202e-02 1.6374678640e-02 0.0
8.1873393202e-02 1.6374678640e-02 0.0
8.1928851053e-02 1.6432153659e-02 0.0
8.1460501437e-02 1.5932331374e-02 0.0
8.3684137986e-02 1.8314601094e-02 0.0
-1.0206595582e-02 2.5900578626e-03 0.0
-1.7407253397e-02 -4.5193866077e-03 0.0
-1.5872449925e-02 -3.0040250483e-03 0.0
-1.6088959350e-02 -3.2177918700e-03 0.0
-1.6088959350e-02 -3.2177918700e-03 0.0
-1.6088959350e-02 -3.2177918700e-03 0.0
-1.6088959350e-02 -3.2177918700e-03 0.0
-1.6088959350e-02 -3.2177918700e-03 0.0
-1.6088959350e-02 -3.2177918700e-03 0.0
-1.6088959350e-02 -3.2177918700e-03 0.0
-1.6088959350e-02 -3.2177918700e-03 0.0
-1.6088959350e-02 -3.2177918700e-03 0.0
-1.6088959350e-02 -3.2177918700e-03 0.0
-1.6088959350e-02 -3.2177918700e-03 0.0
-1.6088959350e-02 -3.2177918700e-03 0.0
-1.6088959350e-02 -3.2177918700e-03 0.0
-1.6088959350e-02 -3.2177918700e-03 0.0
-1.6088959350e-02 -3.2177918700e-03 0.0
-1.6088959350e-02 -3.2177918700e-03 0.0
-1.6059346976e-02 -3.2252271407e-03 0.0
-1.6394342442e-02 -3.1576971969e-03 0.0
-1.5494615972e-02 -3.5987504618e-03 0.0
2.9663236308e-04 -1.1982772927e-03 0.0
8.1873393202e-02 1.6374678640e-02 0.0
8.1873393202e-02 1.6374678640e-02 0.0
8.1873393202e-02 1.6374678640e-02 0.0
8.1873393202e-02 1.6374678640e-02 0.0
8.1873393202e-02 1.6374678640e-02 0.0
8.1873393202e-02 1.6374678640e-02 0.0
8.2024044379e-02 1.6463576718e-02 0.0
8.1339712918e-02 1.5819110971e-02 0.0
8.3885024095e-02 1.8529818322e-02 0.0
-1.0821579408e-02 1.9828642590e-03 0.0
-1.7161628549e-02 -4.2768731785e-03 0.0
-1.5930122623e-02 -3.0609671858e-03 0.0
-1.6088959350e-02 -3.2177918700e-03 0.0
-1.6088959350e-02 -3.2177918700e-03 0.0
-1.6088959350e-02 -3.2177918700e-03 0.0
-1.6088959350e-02 -3.2177918700e-03 0.0
-1.6088959350e-02 -3.2177918700e-03 0.0
-1.6088959350e-02 -3.2177918700e-03 0.0
-1.6088959350e-02 -3.2177918700e-03 0.0
-1.6088959350e-02 -3.2177918700e-03 0.0
-1.6088959350e-02 -3.2177918700e-03 0.0
-1.6088959350e-02 -3.2177918700e-03 0.0
-1.6088959350e-02 -3.2177918700e-03 0.0
-1.6088959350e-02 -3.2177918700e-03 0.0
-1.6088959350e-02 -3.2177918700e-03 0.0
-1.6088959350e-02 -3.2177918700e-03 0.0
-1.6088959350e-02 -3.2177918700e-03 0.0
-1.6088959350e-02 -3.2177918700e-03 0.0
-1.6063210310e-02 -3.2289639020e-03 0.0
-1.6322377087e-02 -3.1379889910e-03 0.0
-1.4572023491e-02 -3.5513346914e-03 0.0
1.5911728484e-03 -6.5764795863e-04 0.0
2.1086054953e-03 6.1640537937e-04 0.0
8.1873393202e-02 1.6374678640e-02 0.0
8.1873393202e-02 1.6374678640e-02 0.0
8.1873393202e-02 1.6374678640e-02 0.0
8.1873393202e-02 1.6374678640e-02 0.0
8.1873393202e-02 1.6374678640e-02 0.0
8.2160620558e-02 1.6510824935e-02 0.0
8.0660800973e-02 1.5611861973e-02 0.0
8.4208829655e-02 1.8810413986e-02 0.0
-1.1176783433e-02 1.6321597330e-03 0.0
-1.6981116065e-02 -4.0986473118e-03 0.0
-1.5971458081e-02 -3.1017790319e-03 0.0
-1.6088959350e-02 -3.2177918700e-03 0.0
-1.6088959350e-02 -3.2177918700e-03 0.0
-1.6088959350e-02 -3.2177918700e-03 0.0
-1.6088959350e-02 -3.2177918700e-03 0.0