# vtk DataFile Version 3.0
D2Q9 Periodic Hill Flow at timestep 1000
ASCII
DATASET STRUCTURED_GRID
DIMENSIONS 33 16 1
POINTS 528 double
0.0000000000e+00 1.0381750000e+00 0.0
2.8125000000e-01 1.0161249342e+00 0.0
5.6250000000e-01 8.4579376806e-01 0.0
8.4375000000e-01 6.0969528778e-01 0.0
1.1250000000e+00 3.8986862790e-01 0.0
1.4062500000e+00 1.9393900392e-01 0.0
1.6875000000e+00 7.1699397761e-02 0.0
1.9687500000e+00 3.8175000000e-02 0.0
2.2500000000e+00 3.8175000000e-02 0.0
2.5312500000e+00 3.8175000000e-02 0.0
2.8125000000e+00 3.8175000000e-02 0.0
3.0937500000e+00 3.8175000000e-02 0.0
3.3750000000e+00 3.8175000000e-02 0.0
3.6562500000e+00 3.8175000000e-02 0.0
3.9375000000e+00 3.8175000000e-02 0.0
4.2187500000e+00 3.8175000000e-02 0.0
4.5000000000e+00 3.8175000000e-02 0.0
4.7812500000e+00 3.8175000000e-02 0.0
5.0625000000e+00 3.8175000000e-02 0.0
5.3437500000e+00 3.8175000000e-02 0.0
5.6250000000e+00 3.8175000000e-02 0.0
5.9062500000e+00 3.8175000000e-02 0.0
6.1875000000e+00 3.8175000000e-02 0.0
6.4687500000e+00 3.8175000000e-02 0.0
6.7500000000e+00 3.8175000000e-02 0.0
7.0312500000e+00 3.8175000000e-02 0.0
7.3125000000e+00 7.1699397761e-02 0.0
7.5937500000e+00 1.9393900392e-01 0.0
7.8750000000e+00 3.8986862790e-01 0.0
8.1562500000e+00 6.0969528778e-01 0.0
8.4375000000e+00 8.4579376806e-01 0.0
8.7187500000e+00 1.0161249342e+00 0.0
9.0000000000e+00 1.0381750000e+00 0.0
0.0000000000e+00 1.1145250000e+00 0.0
2.8125000000e-01 1.0933340277e+00 0.0
5.6250000000e-01 9.2963914074e-01 0.0
8.4375000000e-01 7.0273930254e-01 0.0
1.1250000000e+00 4.9147731772e-01 0.0
1.4062500000e+00 3.0318131545e-01 0.0
1.6875000000e+00 1.8570429135e-01 0.0
1.9687500000e+00 1.5348603896e-01 0.0
2.2500000000e+00 1.5348603896e-01 0.0
2.5312500000e+00 1.5348603896e-01 0.0
2.8125000000e+00 1.5348603896e-01 0.0
3.0937500000e+00 1.5348603896e-01 0.0
3.3750000000e+00 1.5348603896e-01 0.0
3.6562500000e+00 1.5348603896e-01 0.0
3.9375000000e+00 1.5348603896e-01 0.0
4.2187500000e+00 1.5348603896e-01 0.0
4.5000000000e+00 1.5348603896e-01 0.0
4.7812500000e+00 1.5348603896e-01 0.0
5.0625000000e+00 1.5348603896e-01 0.0
5.3437500000e+00 1.5348603896e-01 0.0
5.6250000000e+00 1.5348603896e-01 0.0
5.9062500000e+00 1.5348603896e-01 0.0
6.1875000000e+00 1.5348603896e-01 0.0
6.4687500000e+00 1.5348603896e-01 0.0
6.7500000000e+00 1.5348603896e-01 0.0
7.0312500000e+00 1.5348603896e-01 0.0
7.3125000000e+00 1.8570429135e-01 0.0
7.5937500000e+00 3.0318131545e-01 0.0
7.8750000000e+00 4.9147731772e-01 0.0
8.1562500000e+00 7.0273930254e-01 0.0
8.4375000000e+00 9.2963914074e-01 0.0
8.7187500000e+00 1.0933340277e+00 0.0
9.0000000000e+00 1.1145250000e+00 0.0
0.0000000000e+00 1.2077762062e+00 0.0
2.8125000000e-01 1.1876345004e+00 0.0
5.6250000000e-01 1.0320449316e+00 0.0
8.4375000000e-01 8.1637999156e-01 0.0
1.1250000000e+00 6.1557859980e-01 0.0
1.4062500000e+00 4.3660603476e-01 0.0
1.6875000000e+00 3.2494586098e-01 0.0
1.9687500000e+00 2.9432288862e-01 0.0
2.2500000000e+00 2.9432288862e-01 0.0
2.5312500000e+00 2.9432288862e-01 0.0
2.8125000000e+00 2.9432288862e-01 0.0
3.0937500000e+00 2.9432288862e-01 0.0
3.3750000000e+00 2.9432288862e-01 0.0
3.6562500000e+00 2.9432288862e-01 0.0
3.9375000000e+00 2.9432288862e-01 0.0
4.2187500000e+00 2.9432288862e-01 0.0
4.5000000000e+00 2.9432288862e-01 0.0
4.7812500000e+00 2.9432288862e-01 0.0
5.0625000000e+00 2.9432288862e-01 0.0
5.3437500000e+00 2.9432288862e-01 0.0
5.6250000000e+00 2.9432288862e-01 0.0
5.9062500000e+00 2.9432288862e-01 0.0
6.1875000000e+00 2.9432288862e-01 0.0
6.4687500000e+00 2.9432288862e-01 0.0
6.7500000000e+00 2.9432288862e-01 0.0
7.0312500000e+00 2.9432288862e-01 0.0
7.3125000000e+00 3.2494586098e-01 0.0
7.5937500000e+00 4.3660603476e-01 0.0
7.8750000000e+00 6.1557859980e-01 0.0
8.1562500000e+00 8.1637999156e-01 0.0
8.4375000000e+00 1.0320449316e+00 0.0
8.7187500000e+00 1.1876345004e+00 0.0
9.0000000000e+00 1.2077762062e+00 0.0
0.0000000000e+00 1.3193302628e+00 0.0
2.8125000000e-01 1.3004437680e+00 0.0
5.6250000000e-01 1.1545503861e+00 0.0
8.4375000000e-01 9.5232547010e-01 0.0
1.1250000000e+00 7.6403782092e-01 0.0
1.4062500000e+00 5.9621864774e-01 0.0
1.6875000000e+00 4.9151702468e-01 0.0
1.9687500000e+00 4.6280244544e-01 0.0
2.2500000000e+00 4.6280244544e-01 0.0
2.5312500000e+00 4.6280244544e-01 0.0
2.8125000000e+00 4.6280244544e-01 0.0
3.0937500000e+00 4.6280244544e-01 0.0
3.3750000000e+00 4.6280244544e-01 0.0
3.6562500000e+00 4.6280244544e-01 0.0
3.9375000000e+00 4.6280244544e-01 0.0
4.2187500000e+00 4.6280244544e-01 0.0
4.5000000000e+00 4.6280244544e-01 0.0
4.7812500000e+00 4.6280244544e-01 0.0
5.0625000000e+00 4.6280244544e-01 0.0
5.3437500000e+00 4.6280244544e-01 0.0
5.6250000000e+00 4.6280244544e-01 0.0
5.9062500000e+00 4.6280244544e-01 0.0
6.1875000000e+00 4.6280244544e-01 0.0
6.4687500000e+00 4.6280244544e-01 0.0
6.7500000000e+00 4.6280244544e-01 0.0
7.0312500000e+00 4.6280244544e-01 0.0
7.3125000000e+00 4.9151702468e-01 0.0
7.5937500000e+00 5.9621864774e-01 0.0
7.8750000000e+00 7.6403782092e-01 0.0
8.1562500000e+00 9.5232547010e-01 0.0
8.4375000000e+00 1.1545503861e+00 0.0
8.7187500000e+00 1.3004437680e+00 0.0
9.0000000000e+00 1.3193302628e+00 0.0
0.0000000000e+00 1.4495132424e+00 0.0
2.8125000000e-01 1.4320915722e+00 0.0
5.6250000000e-01 1.2975135877e+00 0.0
8.4375000000e-01 1.1109731070e+00 0.0
1.1250000000e+00 9.3728892765e-01 0.0
1.4062500000e+00 7.8248570235e-01 0.0
1.6875000000e+00 6.8590467030e-01 0.0
1.9687500000e+00 6.5941717548e-01 0.0
2.2500000000e+00 6.5941717548e-01 0.0
2.5312500000e+00 6.5941717548e-01 0.0
2.8125000000e+00 6.5941717548e-01 0.0
3.0937500000e+00 6.5941717548e-01 0.0
3.3750000000e+00 6.5941717548e-01 0.0
3.6562500000e+00 6.5941717548e-01 0.0
3.9375000000e+00 6.5941717548e-01 0.0
4.2187500000e+00 6.5941717548e-01 0.0
4.5000000000e+00 6.5941717548e-01 0.0
4.7812500000e+00 6.5941717548e-01 0.0
5.0625000000e+00 6.5941717548e-01 0.0
5.3437500000e+00 6.5941717548e-01 0.0
5.6250000000e+00 6.5941717548e-01 0.0
5.9062500000e+00 6.5941717548e-01 0.0
6.1875000000e+00 6.5941717548e-01 0.0
6.4687500000e+00 6.5941717548e-01 0.0
6.7500000000e+00 6.5941717548e-01 0.0
7.0312500000e+00 6.5941717548e-01 0.0
7.3125000000e+00 6.8590467030e-01 0.0
7.5937500000e+00 7.8248570235e-01 0.0
7.8750000000e+00 9.3728892765e-01 0.0
8.1562500000e+00 1.1109731070e+00 0.0
8.4375000000e+00 1.2975135877e+00 0.0
8.7187500000e+00 1.4320915722e+00 0.0
9.0000000000e+00 1.4495132424e+00 0.0
0.0000000000e+00 1.5971143014e+00 0.0
2.8125000000e-01 1.5813534446e+00 0.0
5.6250000000e-01 1.4596048228e+00 0.0
8.4375000000e-01 1.2908473063e+00 0.0
1.1250000000e+00 1.1337204957e+00 0.0
1.4062500000e+00 9.9367471176e-01 0.0
1.6875000000e+00 9.0630078063e-01 0.0
1.9687500000e+00 8.8233834724e-01 0.0
2.2500000000e+00 8.8233834724e-01 0.0
2.5312500000e+00 8.8233834724e-01 0.0
2.8125000000e+00 8.8233834724e-01 0.0
3.0937500000e+00 8.8233834724e-01 0.0
3.3750000000e+00 8.8233834724e-01 0.0
3.6562500000e+00 8.8233834724e-01 0.0
3.9375000000e+00 8.8233834724e-01 0.0
4.2187500000e+00 8.8233834724e-01 0.0
4.5000000000e+00 8.8233834724e-01 0.0
4.7812500000e+00 8.8233834724e-01 0.0
5.0625000000e+00 8.8233834724e-01 0.0
5.3437500000e+00 8.8233834724e-01 0.0
5.6250000000e+00 8.8233834724e-01 0.0
5.9062500000e+00 8.8233834724e-01 0.0
6.1875000000e+00 8.8233834724e-01 0.0
6.4687500000e+00 8.8233834724e-01 0.0
6.7500000000e+00 8.8233834724e-01 0.0
7.0312500000e+00 8.8233834724e-01 0.0
7.3125000000e+00 9.0630078063e-01 0.0
7.5937500000e+00 9.9367471176e-01 0.0
7.8750000000e+00 1.1337204957e+00 0.0
8.1562500000e+00 1.2908473063e+00 0.0
8.4375000000e+00 1.4596048228e+00 0.0
8.7187500000e+00 1.5813534446e+00 0.0
9.0000000000e+00 1.5971143014e+00 0.0
0.0000000000e+00 1.7590868131e+00 0.0
2.8125000000e-01 1.7451484779e+00 0.0
5.6250000000e-01 1.6374783736e+00 0.0
8.4375000000e-01 1.4882352927e+00 0.0
1.1250000000e+00 1.3492779901e+00 0.0
1.4062500000e+00 1.2254265334e+00 0.0
1.6875000000e+00 1.1481561697e+00 0.0
1.9687500000e+00 1.1269646551e+00 0.0
2.2500000000e+00 1.1269646551e+00 0.0
2.5312500000e+00 1.1269646551e+00 0.0
2.8125000000e+00 1.1269646551e+00 0.0
3.0937500000e+00 1.1269646551e+00 0.0
3.3750000000e+00 1.1269646551e+00 0.0
3.6562500000e+00 1.1269646551e+00 0.0
3.9375000000e+00 1.1269646551e+00 0.0
4.2187500000e+00 1.1269646551e+00 0.0
4.5000000000e+00 1.1269646551e+00 0.0
4.7812500000e+00 1.1269646551e+00 0.0
5.0625000000e+00 1.1269646551e+00 0.0
5.3437500000e+00 1.1269646551e+00 0.0
5.6250000000e+00 1.1269646551e+00 0.0
5.9062500000e+00 1.1269646551e+00 0.0
6.1875000000e+00 1.1269646551e+00 0.0
6.4687500000e+00 1.1269646551e+00 0.0
6.7500000000e+00 1.1269646551e+00 0.0
7.0312500000e+00 1.1269646551e+00 0.0
7.3125000000e+00 1.1481561697e+00 0.0
7.5937500000e+00 1.2254265334e+00 0.0
7.8750000000e+00 1.3492779901e+00 0.0
8.1562500000e+00 1.4882352927e+00 0.0
8.4375000000e+00 1.6374783736e+00 0.0
8.7187500000e+00 1.7451484779e+00 0.0
9.0000000000e+00 1.7590868131e+00 0.0
0.0000000000e+00 1.9305824874e+00 0.0
2.8125000000e-01 1.9185738289e+00 0.0
5.6250000000e-01 1.8258099875e+00 0.0
8.4375000000e-01 1.6972286922e+00 0.0
1.1250000000e+00 1.5775091725e+00 0.0
1.4062500000e+00 1.4708041873e+00 0.0
1.6875000000e+00 1.4042314297e+00 0.0
1.9687500000e+00 1.3859737498e+00 0.0
2.2500000000e+00 1.3859737498e+00 0.0
2.5312500000e+00 1.3859737498e+00 0.0
2.8125000000e+00 1.3859737498e+00 0.0
3.0937500000e+00 1.3859737498e+00 0.0
3.3750000000e+00 1.3859737498e+00 0.0
3.6562500000e+00 1.3859737498e+00 0.0
3.9375000000e+00 1.3859737498e+00 0.0
4.2187500000e+00 1.3859737498e+00 0.0
4.5000000000e+00 1.3859737498e+00 0.0
4.7812500000e+00 1.3859737498e+00 0.0
5.0625000000e+00 1.3859737498e+00 0.0
5.3437500000e+00 1.3859737498e+00 0.0
5.6250000000e+00 1.3859737498e+00 0.0
5.9062500000e+00 1.3859737498e+00 0.0
6.1875000000e+00 1.3859737498e+00 0.0
6.4687500000e+00 1.3859737498e+00 0.0
6.7500000000e+00 1.3859737498e+00 0.0
7.0312500000e+00 1.3859737498e+00 0.0
7.3125000000e+00 1.4042314297e+00 0.0
7.5937500000e+00 1.4708041873e+00 0.0
[...]
POINT_DATA 528

SCALARS Density double 1
LOOKUP_TABLE default
5.3816747731e-01
5.4410423071e-01
5.4312235860e-01
5.3887201330e-01
5.2439383093e-01
5.0703892836e-01
5.5114846074e-01
5.5524306686e-01
5.6579999620e-01
5.4542711458e-01
5.0785719730e-01
5.0510941629e-01
5.2904748882e-01
6.0320793118e-01
5.8846331515e-01
5.5713307278e-01
4.8129042467e-01
4.7556820764e-01
4.3235794666e-01
4.1804301894e-01
4.1641902105e-01
4.2120517924e-01
4.3894703768e-01
4.4420811604e-01
4.6791617188e-01
4.7187563690e-01
4.7703467572e-01
4.4418606694e-01
3.9562570423e-01
3.8243851276e-01
3.8185045466e-01
4.1415599087e-01
4.0537121372e-01
5.1430659398e-01
5.2858830296e-01
5.5164017482e-01
5.5861358223e-01
5.3815923970e-01
5.4603599192e-01
5.6611225214e-01
5.9002733252e-01
5.6310593677e-01
5.1158790642e-01
4.8744381067e-01
4.7295277359e-01
6.0385681959e-01
6.0834671855e-01
6.1734989075e-01
5.1224584274e-01
4.7087038331e-01
4.5601328527e-01
4.2778256063e-01
4.0197065046e-01
3.8170315159e-01
3.7885387498e-01
3.9866476899e-01
4.4050050896e-01
4.5482128823e-01
4.6866316622e-01
4.5353586065e-01
4.3821962097e-01
4.1976756467e-01
3.8709441888e-01
3.8448701269e-01
3.9076970274e-01
3.8610368614e-01
5.3921714681e-01
5.7552046556e-01
5.7435381226e-01
5.6414902877e-01
5.5946762049e-01
5.7524907107e-01
6.0093206511e-01
5.7665309719e-01
5.2325616165e-01
4.8342193965e-01
4.8964766417e-01
5.9522168476e-01
6.1947920449e-01
6.1116782798e-01
5.1471109568e-01
4.8186062937e-01
4.5817422791e-01
4.2551034192e-01
4.0209299886e-01
3.7237354296e-01
3.7087754340e-01
3.9288685895e-01
4.3020030841e-01
4.5368514717e-01
4.6354811904e-01
4.5589066702e-01
4.5252806999e-01
4.3528547092e-01
4.0821581019e-01
3.8865985009e-01
3.7852134191e-01
3.7628431440e-01
3.9688691404e-01
5.6336976003e-01
5.8061640877e-01
5.7641475100e-01
5.6695783622e-01
5.7806698167e-01
6.0098251225e-01
5.7640907534e-01
5.1882326931e-01
4.7904069916e-01
4.8210623894e-01
6.0103169679e-01
6.1241658305e-01
6.1756842714e-01
5.0742406434e-01
4.8491514083e-01
4.6297581575e-01
4.1664616808e-01
4.0273841021e-01
3.6657044708e-01
3.6921227142e-01
3.9501536717e-01
4.2953691269e-01
4.5525078718e-01
4.6387096435e-01
4.5783898804e-01
4.5694343894e-01
4.4194326480e-01
4.0728893467e-01
3.8679137649e-01
3.7336244154e-01
3.7297965386e-01
3.9635349721e-01
4.4915648790e-01
5.8459131599e-01
5.7519439364e-01
5.6308300840e-01
5.7877735304e-01
5.9943092382e-01
5.7532214033e-01
5.1481173424e-01
4.7707684456e-01
4.7885967113e-01
6.0839163425e-01
6.1302332875e-01
6.2640310402e-01
4.9931873796e-01
4.8488411303e-01
4.6246652310e-01
4.1313650609e-01
4.0083210509e-01
3.6248309542e-01
3.6860556200e-01
3.9828837924e-01
4.3244966296e-01
4.5678361702e-01
4.6586816777e-01
4.5916142376e-01
4.5945013529e-01
4.4355808110e-01
4.0713425273e-01
3.7884385000e-01
3.7025367792e-01
3.7240652648e-01
3.9944614633e-01
4.6053545325e-01
4.6738126499e-01
5.7727701308e-01
5.5920155885e-01
5.8018360736e-01
5.9960321542e-01
5.7441244437e-01
5.1211249150e-01
4.7629432916e-01
4.7700421756e-01
6.1152675218e-01
6.1541901578e-01
6.2707587418e-01
4.9668248770e-01
4.8191389926e-01
4.6467772994e-01
4.1213348955e-01
3.9752588181e-01
3.6122524358e-01
3.6857903434e-01
3.9992569522e-01
4.3405695539e-01
4.5648709933e-01
4.6627311374e-01
4.5978255262e-01
4.6074931138e-01
4.4238575812e-01
4.0530022283e-01
3.7361952927e-01
3.6874147198e-01
3.7320475106e-01
3.9543831580e-01
4.6329614145e-01
4.7008406940e-01
4.8102117517e-01
5.5736377173e-01
5.7945733492e-01
5.9986989937e-01
5.7429791138e-01
5.1101116557e-01
4.7628891001e-01
4.7411105715e-01
6.1340493027e-01
6.1676408441e-01
6.2703477504e-01
4.9532390766e-01
4.7960957147e-01
4.6618229115e-01
4.1160560891e-01
3.9476474780e-01
3.6098277237e-01
3.6816490623e-01
4.0097066932e-01
4.3543271434e-01
4.5620972201e-01
4.6699490285e-01
4.6013548130e-01
4.6189134809e-01
4.4147838722e-01
4.0347907895e-01
3.7104672749e-01
3.6745455076e-01
3.7410595763e-01
3.9297881237e-01
4.6692571300e-01
4.7266772849e-01
4.8091026938e-01
4.9909462905e-01
5.7852289117e-01
6.0020499692e-01
5.7388795663e-01
5.1141731690e-01
4.7722884305e-01
4.7296185283e-01
6.1423063746e-01
6.1716035868e-01
6.2715274985e-01
4.9472484580e-01
4.7813615998e-01
4.6700904504e-01
4.1174297055e-01
3.9285115282e-01
3.6119262263e-01
3.6790428088e-01
4.0145141834e-01
4.3638288561e-01
4.5585657002e-01
4.6752681307e-01
4.5997317151e-01
4.6273414513e-01
4.4092994778e-01
4.0247733819e-01
3.7065084735e-01
3.6667473193e-01
3.7499722483e-01
3.9027640448e-01
4.6890171923e-01
4.7397049063e-01
4.8050860876e-01
5.0157949628e-01
4.9432889492e-01
6.0024135531e-01
5.7421151079e-01
5.1206025385e-01
4.7968548886e-01
4.7278554609e-01
6.1448041627e-01
6.1597685114e-01
6.2742651363e-01
4.9484059406e-01
4.7702616169e-01
4.6719109633e-01
4.1234108197e-01
3.9179960150e-01
3.6176801979e-01
3.6775732017e-01
4.0131060787e-01
4.3704876146e-01
4.5548257114e-01
4.6789757969e-01
4.5935193434e-01
4.6325855531e-01
4.4077206467e-01
4.0216486590e-01
3.7073002427e-01
3.6628706570e-01
3.7562011156e-01
3.8821211823e-01
4.6926163265e-01
4.7507546804e-01
4.7896573132e-01
5.0367633862e-01
4.9324512994e-01
4.9228772804e-01
5.7519010839e-01
5.1537478226e-01
4.8392452601e-01
4.7240809061e-01
6.1400306586e-01
6.1348350805e-01
6.2994761236e-01
4.9592479446e-01
4.7607878398e-01
4.6681340720e-01
4.1343372173e-01
3.9157355611e-01
3.6267555159e-01
3.6769188898e-01
4.0059015739e-01
4.3745847126e-01
4.5505889142e-01
4.6813498399e-01
4.5826813143e-01
4.6348233305e-01
4.4104024337e-01
4.0251854461e-01
3.7122354136e-01
3.6575374413e-01
3.7610604277e-01
3.8734192966e-01
4.6858817719e-01
4.7610128677e-01
4.7757587303e-01
5.0472199994e-01
4.9254089755e-01
4.9060566840e-01
4.2025797285e-01
5.1846757821e-01
4.8859057471e-01
4.7392220881e-01
6.1179615418e-01
6.0998606147e-01
6.3120989167e-01
5.0109239130e-01
4.7505150119e-01
4.6588999961e-01
4.1511739903e-01
3.9211761301e-01
3.6400150241e-01
3.6771201096e-01
3.9937168181e-01
4.3755448453e-01
4.5465235139e-01
4.6820689747e-01
4.5668374815e-01
4.6341443573e-01
4.4171833484e-01
4.0349890397e-01
3.7222111077e-01
3.6500691444e-01
3.7669723043e-01
3.8731014982e-01
4.6724043337e-01
4.7704458942e-01
4.7612513997e-01
5.0604722451e-01
4.9064950534e-01
4.9048442772e-01
4.1982054882e-01
4.1206288490e-01
4.9448076860e-01
4.7944647000e-01
6.0597090832e-01
6.0667684552e-01
6.2940903558e-01
5.0720273986e-01
4.7373189953e-01
4.6445099675e-01
4.1720939452e-01
3.9339960414e-01
3.6583486564e-01
3.6766031970e-01
3.9769873993e-01
4.3713979893e-01
4.5453944314e-01
4.6745990982e-01
4.5471649270e-01
4.6276586924e-01
4.4261733219e-01
4.0511506334e-01
3.7362960340e-01
3.6407385539e-01
3.7732634794e-01
3.8716183093e-01
4.6543889569e-01
4.7761084718e-01
4.7571298705e-01
5.0596626997e-01
4.8862337175e-01
4.9214915217e-01
4.1939554657e-01
4.1236941237e-01
3.9064862363e-01
4.8796451949e-01
5.8919204817e-01
6.0686517634e-01
6.2101506532e-01
5.1244290801e-01
4.7590947378e-01
4.6138883425e-01
4.2052888220e-01
3.9578916825e-01
3.6760670244e-01
3.6798514615e-01
3.9584462150e-01
4.3591877744e-01
4.5438010425e-01
4.6496243708e-01
4.5371520920e-01
4.6063939791e-01
4.4491916531e-01
4.0723357989e-01
3.7486584939e-01
3.6538156583e-01
3.7545109560e-01
3.8924529764e-01
4.6262065836e-01
4.7716821781e-01
4.7727501900e-01
5.0054681105e-01
4.9279450806e-01
4.8613681497e-01
4.2584312442e-01
4.1026836622e-01
3.9351657799e-01
3.9085196183e-01
5.8061094744e-01
6.2446919255e-01
6.0622172541e-01
5.2294280604e-01
4.8030079281e-01
4.5617978862e-01
4.2353065213e-01
3.9755250867e-01
3.6696627623e-01
3.6861558159e-01
3.9362918747e-01
4.3197853171e-01
4.5497270637e-01
4.6154667681e-01
4.5668990034e-01
4.5720956081e-01
4.4732998159e-01
4.0825311590e-01
3.7610052019e-01
3.6524763752e-01
3.7086212271e-01
3.9343403071e-01
4.5727048617e-01
4.7571664894e-01
4.7975873927e-01
4.9623569100e-01
4.9874294355e-01
4.7933683146e-01
4.3560993364e-01
4.0542892268e-01
3.9340611251e-01
3.9222283176e-01
4.2525494139e-01
6.3834103471e-01
6.0924595575e-01
5.3123291671e-01
4.9401322837e-01
4.5501146728e-01
4.1947263649e-01
3.9991618538e-01
3.5192287954e-01
3.5971593193e-01
3.8379579222e-01
4.2087920690e-01
4.5283614440e-01
4.5851492550e-01
4.5802533922e-01
4.5467427890e-01
4.4702901967e-01
4.0533829169e-01
3.6782770996e-01
3.5830841955e-01
3.5978687202e-01
3.8500384040e-01
4.5672632512e-01
4.6662747406e-01
4.8178935275e-01
4.9458987370e-01
5.0141970936e-01
4.8611642315e-01
4.2813047572e-01
4.0832916894e-01
3.7973804054e-01
3.8447632654e-01
4.1643934871e-01
4.5265700467e-01
6.3580971005e-01
5.5874071686e-01
5.1331498679e-01
4.7266253603e-01
4.5105782311e-01
3.9586511886e-01
3.3433710225e-01
3.2494791652e-01
3.4630346995e-01
4.0159779935e-01
4.3572008585e-01
4.4575934937e-01
4.6061573141e-01
4.6565831662e-01
4.7484168304e-01
4.1844343483e-01
3.5680268151e-01
3.3112815160e-01
3.3533991243e-01
3.5596956327e-01
4.2255719871e-01
4.6355465620e-01
4.7323247001e-01
4.8406715878e-01
5.0275821440e-01
5.0478087421e-01
4.5950955783e-01
3.9664078736e-01
3.6560497829e-01
3.6476746887e-01
3.9592551731e-01
4.3757147375e-01
4.5972942780e-01

VECTORS Velocity double
-4.2879671908e-02 8.9000377429e-02 0.0
-5.0578892819e-02 1.1335969232e-01 0.0
-2.5843656345e-02 7.6823666844e-03 0.0
2.7630241118e-03 -3.6182292095e-02 0.0
-1.6216935727e-02 9.0602056986e-03 0.0
-3.2843645946e-04 -2.9535812823e-02 0.0
-6.2047961253e-02 8.5657379483e-02 0.0
3.0923212500e-03 1.0480005978e-02 0.0
-2.6743363280e-02 7.0744881037e-02 0.0
-3.4774471066e-02 4.9157365006e-02 0.0
-3.4126573755e-02 6.7284072659e-02 0.0
-5.8856831546e-02 7.2763186770e-02 0.0
-5.7465023898e-02 1.2030413508e-01 0.0
1.4280404224e-01 -3.5038814755e-02 0.0
1.4237487141e-01 3.0907448754e-03 0.0
1.5039875057e-01 -2.1470125371e-02 0.0
-3.2111780493e-02 -3.7967327574e-03 0.0
-3.2196947998e-02 -2.5810890117e-03 0.0
-3.6399747897e-02 2.8105843803e-03 0.0
-6.6504831918e-02 -1.3224152239e-02 0.0
-4.4253440512e-02 3.9508946686e-02 0.0
-3.6294740959e-02 2.0661107188e-02 0.0
-2.9700891306e-02 -4.3917772379e-03 0.0
4.3188139702e-03 1.6128747873e-02 0.0
6.4375082455e-03 2.0967709354e-02 0.0
8.2518336342e-03 5.0242947801e-03 0.0
1.2018466103e-03 1.7384251991e-02 0.0
1.3763449293e-02 5.8534018053e-04 0.0
2.6020538414e-02 -7.9331831042e-03 0.0
1.4794134376e-01 1.4254211655e-01 0.0
1.6952161823e-01 1.8233847688e-01 0.0
-5.3395172207e-02 -6.7179941634e-02 0.0
-1.6593889409e-02 9.8447954588e-02 0.0
-2.2026611221e-03 -8.1000254473e-02 0.0
1.6824328779e-02 -7.9521391583e-02 0.0
2.7470982942e-02 -2.1935875425e-02 0.0
2.7007826748e-02 -2.3332523248e-04 0.0
-3.1076273808e-02 -3.7021689140e-02 0.0
-4.4983740667e-04 8.6365247433e-04 0.0
-4.5879401246e-03 1.2547808680e-02 0.0
6.0762260431e-03 5.8429969200e-02 0.0
-1.4082853119e-02 3.4423069493e-02 0.0
-1.1899705176e-02 1.1129566159e-02 0.0
-2.5463063835e-02 -8.9255219186e-03 0.0
-3.8344693159e-02 -8.8005589217e-02 0.0
1.3157090211e-01 9.4919607784e-03 0.0
1.4004284883e-01 4.1105283119e-02 0.0
1.5569455453e-01 8.8026069647e-02 0.0
-1.2768063868e-02 5.4792253199e-02 0.0
-3.4704703783e-02 -1.6115947090e-02 0.0
-3.0392014080e-02 3.5566520614e-02 0.0
-7.7600478329e-02 2.9838871861e-02 0.0
-6.9212394735e-02 -2.2667556333e-02 0.0
-6.6220349353e-02 -8.8796960620e-02 0.0
-4.7702003337e-02 -1.2779923695e-01 0.0
-6.2392356636e-03 -8.5610269868e-02 0.0
-5.2200711496e-03 -3.8849504371e-02 0.0
-7.0158773412e-03 -3.9484391443e-02 0.0
9.1646768255e-04 -1.6188964398e-03 0.0
1.7415776219e-03 -3.8312533167e-04 0.0
1.5104651361e-02 7.9690515021e-03 0.0
-1.5631979629e-02 4.8412071369e-02 0.0
-4.1413271207e-02 -6.8280206296e-02 0.0
-4.8922953916e-02 -1.1376238269e-01 0.0
-3.4438295433e-02 -2.5189643713e-02 0.0
-5.2769271401e-02 -9.2517165706e-02 0.0
2.2957651430e-02 -3.3086931777e-02 0.0
1.5299193584e-02 1.0025205573e-03 0.0
8.9452484816e-03 1.3783623392e-02 0.0
-7.9357846636e-03 1.6219814604e-02 0.0
-7.0520486395e-03 2.6210561896e-02 0.0
-7.4514563166e-03 3.5994569429e-02 0.0
6.3924945859e-03 6.6050265922e-02 0.0
-1.2014723711e-02 5.4342948108e-02 0.0
-1.2631886932e-02 2.8286943158e-02 0.0
-2.8755261134e-02 -5.8663722910e-03 0.0
-3.0080848939e-02 -4.6001350462e-02 0.0
1.3201516385e-01 -2.4513402103e-03 0.0
1.4405535027e-01 4.8993661826e-02 0.0
1.5101523911e-01 7.0766324530e-02 0.0
-1.2314136803e-02 6.2382263859e-02 0.0
-3.5037322349e-02 -3.5787822054e-03 0.0
-3.2891540403e-02 2.3334346589e-02 0.0
-7.0691093247e-02 4.2552939306e-02 0.0
-7.4321935769e-02 -3.0354023621e-02 0.0
-6.4170970104e-02 -9.4846324253e-02 0.0
-5.2937929725e-02 -1.3963804572e-01 0.0
-4.9931372158e-03 -1.0137383391e-01 0.0
-5.5315197654e-03 -5.2228559928e-02 0.0
-6.4486996385e-03 -3.8507454850e-02 0.0
-1.5646674796e-04 -1.7655591953e-02 0.0
4.1375969251e-03 -2.3359152956e-03 0.0
2.3324032150e-02 2.8008096598e-02 0.0
-1.5408271276e-02 5.7644598738e-02 0.0
-4.9689506639e-02 -8.3402435316e-03 0.0
-5.2216289784e-02 -8.0342724840e-02 0.0
-4.0198641076e-02 -7.7436268142e-02 0.0
-5.6272842952e-02 -8.0356472383e-02 0.0
-3.0574665395e-02 -9.7863229239e-02 0.0
2.0823100394e-02 -4.0495550855e-03 0.0
1.0290734082e-02 2.2644586588e-02 0.0
-6.3866991152e-03 2.6648754735e-02 0.0
-8.8380697842e-03 3.0679799721e-02 0.0
-8.5369111900e-03 3.6723826229e-02 0.0
1.1055084038e-02 6.0221231400e-02 0.0
-9.2396613336e-03 5.5198457875e-02 0.0
-1.4918292782e-02 1.9261669741e-02 0.0
-2.7391056653e-02 -1.2548756601e-02 0.0
-2.9955707734e-02 -3.9294687197e-02 0.0
1.3239111722e-01 -6.1387124983e-03 0.0
1.4869335325e-01 6.1858163162e-02 0.0
1.4625350515e-01 6.4021475351e-02 0.0
-1.2239549132e-02 6.2732277070e-02 0.0
-3.7581855768e-02 -1.2030932633e-02 0.0
-3.2601886849e-02 1.5848889344e-02 0.0
-6.7290922860e-02 5.2079221748e-02 0.0
-7.8789056696e-02 -4.6588519327e-02 0.0
-6.0205841393e-02 -9.4665983042e-02 0.0
-5.8188709030e-02 -1.4197445734e-01 0.0
-2.7814459101e-03 -9.7398665854e-02 0.0
-6.3088504438e-03 -4.0871241137e-02 0.0
-6.4446520392e-03 -3.5341383447e-02 0.0
-2.9248570927e-04 -2.0765616666e-02 0.0
4.6406841437e-03 1.1913286332e-03 0.0
2.6331491662e-02 2.8024931639e-02 0.0
-9.1545509757e-03 5.3554786600e-02 0.0
-4.1250216057e-02 -3.5913006089e-03 0.0
-5.1775844924e-02 -8.1976769719e-02 0.0
-4.1074222397e-02 -8.7865599668e-02 0.0
-5.0316024122e-02 -7.6674158207e-02 0.0
-2.4223275726e-02 -9.4433991291e-02 0.0
-2.8137971334e-02 -6.2068221767e-02 0.0
1.0929511460e-02 1.5133804060e-02 0.0
-6.0382030207e-03 2.7919381960e-02 0.0
-9.9841138634e-03 3.3041455433e-02 0.0
-7.6697999030e-03 4.0724741893e-02 0.0
1.1581904061e-02 6.2586427027e-02 0.0
-8.0492722999e-03 4.9648411312e-02 0.0
-1.1679589395e-02 1.5855392626e-02 0.0
-2.7619335457e-02 -1.7079176549e-02 0.0
-2.9849639056e-02 -3.7694526424e-02 0.0
1.3371370436e-01 2.7432665960e-03 0.0
1.4789181408e-01 5.7794839595e-02 0.0
1.4463046440e-01 6.5680021297e-02 0.0
-1.5890619271e-02 5.0526734465e-02 0.0
-3.6726905923e-02 -1.0117811900e-02 0.0
-3.2848376922e-02 1.0993613853e-02 0.0
-6.6818779890e-02 4.9682669160e-02 0.0
-7.8188871454e-02 -4.7918568613e-02 0.0
-6.2098909428e-02 -1.0096758035e-01 0.0
-5.8414250623e-02 -1.3955755666e-01 0.0
-3.3858002203e-03 -9.5701123781e-02 0.0
-5.7832372486e-03 -3.8529521789e-02 0.0
-6.5566470090e-03 -3.5211760660e-02 0.0
-2.5024670063e-04 -2.0757798984e-02 0.0
4.4075298778e-03 -1.6645608402e-03 0.0
2.7070328965e-02 3.3406356687e-02 0.0
-2.1708055070e-03 4.7839876296e-02 0.0
-4.1883124663e-02 -5.6057520214e-03 0.0
-4.7647231097e-02 -8.6856701736e-02 0.0
-4.2280023357e-02 -9.6669962683e-02 0.0
-5.2945599844e-02 -7.9072599895e-02 0.0
-1.9242889843e-02 -8.6020836244e-02 0.0
-2.2020811691e-02 -5.4496564283e-02 0.0
-3.5209414199e-02 -1.6127086873e-02 0.0
-4.6431191053e-03 3.0000658142e-02 0.0
-1.4868575621e-02 3.2211496806e-02 0.0
-6.3207313231e-03 4.2449610067e-02 0.0
1.0745087737e-02 6.4154303707e-02 0.0
-7.5058131941e-03 4.7964754095e-02 0.0
-9.3201247472e-03 1.5079595246e-02 0.0
-2.6614447756e-02 -1.9494008004e-02 0.0
-2.9962293382e-02 -3.5434332217e-02 0.0
1.3508774709e-01 9.4178497173e-03 0.0
1.4667792705e-01 5.6179406969e-02 0.0
1.4488596756e-01 6.7114561051e-02 0.0
-1.8531374122e-02 4.3951799810e-02 0.0
-3.6178429743e-02 -1.3496978122e-02 0.0
-3.2840258549e-02 9.6025241380e-03 0.0
-6.6418261954e-02 4.6427915078e-02 0.0
-7.7903090836e-02 -5.1065924153e-02 0.0
-6.3396389686e-02 -1.0431427805e-01 0.0
-5.8328154347e-02 -1.3761789342e-01 0.0
-3.9279285452e-03 -9.3363913551e-02 0.0
-5.3998598162e-03 -3.5768954245e-02 0.0
-6.6395159619e-03 -3.3913862372e-02 0.0
-2.1827311385e-04 -2.0251875641e-02 0.0
4.2185856152e-03 -2.9045280004e-03 0.0
2.7591748005e-02 3.7048222839e-02 0.0
-1.5192372056e-03 4.5743459442e-02 0.0
-4.2281466148e-02 -1.0568740878e-02 0.0
-4.4403539578e-02 -8.8266571110e-02 0.0
-4.3730392487e-02 -1.0139819556e-01 0.0
-5.4339777228e-02 -7.6639927577e-02 0.0
-2.2850092334e-02 -7.3577887977e-02 0.0
-1.5077823740e-02 -4.7908503532e-02 0.0
-3.6622494264e-02 -1.1230620812e-02 0.0
-3.3398067557e-02 -1.7354724161e-02 0.0
-1.6893166501e-02 3.0293207054e-02 0.0
-2.1013710190e-03 4.5309515283e-02 0.0
9.5458302565e-03 6.5125545034e-02 0.0
-7.4543386764e-03 4.7775922904e-02 0.0
-8.7023225493e-03 1.4894009734e-02 0.0
-2.5839562923e-02 -2.0472520003e-02 0.0
-3.8135365337e-02 -3.6320451469e-02 0.0
1.3585054665e-01 1.4184415092e-02 0.0
1.4577365671e-01 5.4279547488e-02 0.0
1.4531503384e-01 6.8388625023e-02 0.0
-2.0404992126e-02 3.8263086676e-02 0.0
-3.5723316386e-02 -1.5259227465e-02 0.0
-3.2797553377e-02 1.0108886644e-02 0.0
-6.6340976585e-02 4.3457081375e-02 0.0
-7.7592158623e-02 -5.2867396312e-02 0.0
-6.4358739449e-02 -1.0600815542e-01 0.0
-5.8156401182e-02 -1.3661053483e-01 0.0
-4.3714334445e-03 -9.1580784008e-02 0.0
-5.1308634598e-03 -3.4295440085e-02 0.0
-6.6903053585e-03 -3.3281207854e-02 0.0
-1.7425042318e-04 -1.9644427747e-02 0.0
4.0643887081e-03 -3.8894192954e-03 0.0
2.7881759046e-02 3.9398882812e-02 0.0
-1.0475152198e-03 4.4375475096e-02 0.0
-4.3198202899e-02 -1.5392442335e-02 0.0
-4.2737615034e-02 -8.8916994639e-02 0.0
-4.5293675494e-02 -1.0379924296e-01 0.0
-5.4968707023e-02 -7.5625930975e-02 0.0
-2.4949953715e-02 -6.6367993684e-02 0.0
-1.9943042273e-02 -4.3483791217e-02 0.0
-3.7728665412e-02 -9.9612390107e-03 0.0
-3.1389361992e-02 -1.8152258710e-02 0.0
4.5613401188e-04 -1.2996457617e-02 0.0
-9.3229640615e-04 4.7020758845e-02 0.0
5.2552369233e-03 6.7541608315e-02 0.0
-7.4630523808e-03 4.9301981165e-02 0.0
-8.8927268170e-03 1.6536609633e-02 0.0
-2.5446253815e-02 -2.0299281480e-02 0.0
-4.4723983257e-02 -3.9109324053e-02 0.0
1.3042064545e-01 1.6002728099e-02 0.0
1.4514998440e-01 5.2373203079e-02 0.0
1.4575495520e-01 7.0090172308e-02 0.0
-2.1650118137e-02 3.4299349182e-02 0.0
-3.5358824770e-02 -1.6026655239e-02 0.0
-3.2708615458e-02 1.1277901734e-02 0.0
-6.6522887089e-02 4.0786228597e-02 0.0
-7.7189802231e-02 -5.3447347060e-02 0.0
-6.5100069357e-02 -1.0705692589e-01 0.0
-5.7831545348e-02 -1.3626432735e-01 0.0
-4.7158285361e-03 -9.0306983167e-02 0.0
-4.9628241722e-03 -3.3675712424e-02 0.0
-6.7257025550e-03 -3.3100516235e-02 0.0
-1.0565941635e-04 -1.8937014588e-02 0.0
3.9410580097e-03 -4.8847749046e-03 0.0
2.7962613214e-02 4.0804563900e-02 0.0
-6.7887806747e-04 4.3798089068e-02 0.0
-4.3810342499e-02 -1.8295445010e-02 0.0
-4.2650525350e-02 -8.9306304936e-02 0.0
-4.6304028973e-02 -1.0415600100e-01 0.0
-5.4969401517e-02 -7.4757288119e-02 0.0
-2.7721805247e-02 -6.2420039255e-02 0.0
-2.4022270563e-02 -3.9244607009e-02 0.0
-3.6338639678e-02 -9.4695210773e-03 0.0
-2.9496170403e-02 -1.8129923051e-02 0.0
2.8601873962e-03 -1.0528967926e-02 0.0
5.9190149284e-03 6.3031145672e-03 0.0
3.7012900820e-03 6.9085103051e-02 0.0
-1.1262551364e-02 5.0409281016e-02 0.0
-9.0712206706e-03 1.9848914720e-02 0.0
-2.4944694590e-02 -1.9157813031e-02 0.0
-4.7660861050e-02 -4.3592886242e-02 0.0
1.2625052604e-01 1.6516744838e-02 0.0
1.4478402981e-01 5.0763515679e-02 0.0
1.4636472886e-01 7.2286034078e-02 0.0
-2.2351848028e-02 3.1920897422e-02 0.0
-3.5108340962e-02 -1.6306959535e-02 0.0
-3.2564252781e-02 1.3138788163e-02 0.0
-6.6998966448e-02 3.8614837079e-02 0.0
-7.6663484931e-02 -5.2981479226e-02 0.0
-6.5673256220e-02 -1.0775724291e-01 0.0