# vtk DataFile Version 3.0
D2Q9 Periodic Hill Flow at timestep 500
ASCII
DATASET STRUCTURED_GRID
DIMENSIONS 33 16 1
POINTS 528 double
0.0000000000e+00 1.0381750000e+00 0.0
2.8125000000e-01 1.0161249342e+00 0.0
5.6250000000e-01 8.4579376806e-01 0.0
8.4375000000e-01 6.0969528778e-01 0.0
1.1250000000e+00 3.8986862790e-01 0.0
1.4062500000e+00 1.9393900392e-01 0.0
1.6875000000e+00 7.1699397761e-02 0.0
1.9687500000e+00 3.8175000000e-02 0.0
2.2500000000e+00 3.8175000000e-02 0.0
2.5312500000e+00 3.8175000000e-02 0.0
2.8125000000e+00 3.8175000000e-02 0.0
3.0937500000e+00 3.8175000000e-02 0.0
3.3750000000e+00 3.8175000000e-02 0.0
3.6562500000e+00 3.8175000000e-02 0.0
3.9375000000e+00 3.8175000000e-02 0.0
4.2187500000e+00 3.8175000000e-02 0.0
4.5000000000e+00 3.8175000000e-02 0.0
4.7812500000e+00 3.8175000000e-02 0.0
5.0625000000e+00 3.8175000000e-02 0.0
5.3437500000e+00 3.8175000000e-02 0.0
5.6250000000e+00 3.8175000000e-02 0.0
5.9062500000e+00 3.8175000000e-02 0.0
6.1875000000e+00 3.8175000000e-02 0.0
6.4687500000e+00 3.8175000000e-02 0.0
6.7500000000e+00 3.8175000000e-02 0.0
7.0312500000e+00 3.8175000000e-02 0.0
7.3125000000e+00 7.1699397761e-02 0.0
7.5937500000e+00 1.9393900392e-01 0.0
7.8750000000e+00 3.8986862790e-01 0.0
8.1562500000e+00 6.0969528778e-01 0.0
8.4375000000e+00 8.4579376806e-01 0.0
8.7187500000e+00 1.0161249342e+00 0.0
9.0000000000e+00 1.0381750000e+00 0.0
0.0000000000e+00 1.1145250000e+00 0.0
2.8125000000e-01 1.0933340277e+00 0.0
5.6250000000e-01 9.2963914074e-01 0.0
8.4375000000e-01 7.0273930254e-01 0.0
1.1250000000e+00 4.9147731772e-01 0.0
1.4062500000e+00 3.0318131545e-01 0.0
1.6875000000e+00 1.8570429135e-01 0.0
1.9687500000e+00 1.5348603896e-01 0.0
2.2500000000e+00 1.5348603896e-01 0.0
2.5312500000e+00 1.5348603896e-01 0.0
2.8125000000e+00 1.5348603896e-01 0.0
3.0937500000e+00 1.5348603896e-01 0.0
3.3750000000e+00 1.5348603896e-01 0.0
3.6562500000e+00 1.5348603896e-01 0.0
3.9375000000e+00 1.5348603896e-01 0.0
4.2187500000e+00 1.5348603896e-01 0.0
4.5000000000e+00 1.5348603896e-01 0.0
4.7812500000e+00 1.5348603896e-01 0.0
5.0625000000e+00 1.5348603896e-01 0.0
5.3437500000e+00 1.5348603896e-01 0.0
5.6250000000e+00 1.5348603896e-01 0.0
5.9062500000e+00 1.5348603896e-01 0.0
6.1875000000e+00 1.5348603896e-01 0.0
6.4687500000e+00 1.5348603896e-01 0.0
6.7500000000e+00 1.5348603896e-01 0.0
7.0312500000e+00 1.5348603896e-01 0.0
7.3125000000e+00 1.8570429135e-01 0.0
7.5937500000e+00 3.0318131545e-01 0.0
7.8750000000e+00 4.9147731772e-01 0.0
8.1562500000e+00 7.0273930254e-01 0.0
8.4375000000e+00 9.2963914074e-01 0.0
8.7187500000e+00 1.0933340277e+00 0.0
9.0000000000e+00 1.1145250000e+00 0.0
0.0000000000e+00 1.2077762062e+00 0.0
2.8125000000e-01 1.1876345004e+00 0.0
5.6250000000e-01 1.0320449316e+00 0.0
8.4375000000e-01 8.1637999156e-01 0.0
1.1250000000e+00 6.1557859980e-01 0.0
1.4062500000e+00 4.3660603476e-01 0.0
1.6875000000e+00 3.2494586098e-01 0.0
1.9687500000e+00 2.9432288862e-01 0.0
2.2500000000e+00 2.9432288862e-01 0.0
2.5312500000e+00 2.9432288862e-01 0.0
2.8125000000e+00 2.9432288862e-01 0.0
3.0937500000e+00 2.9432288862e-01 0.0
3.3750000000e+00 2.9432288862e-01 0.0
3.6562500000e+00 2.9432288862e-01 0.0
3.9375000000e+00 2.9432288862e-01 0.0
4.2187500000e+00 2.9432288862e-01 0.0
4.5000000000e+00 2.9432288862e-01 0.0
4.7812500000e+00 2.9432288862e-01 0.0
5.0625000000e+00 2.9432288862e-01 0.0
5.3437500000e+00 2.9432288862e-01 0.0
5.6250000000e+00 2.9432288862e-01 0.0
5.9062500000e+00 2.9432288862e-01 0.0
6.1875000000e+00 2.9432288862e-01 0.0
6.4687500000e+00 2.9432288862e-01 0.0
6.7500000000e+00 2.9432288862e-01 0.0
7.0312500000e+00 2.9432288862e-01 0.0
7.3125000000e+00 3.2494586098e-01 0.0
7.5937500000e+00 4.3660603476e-01 0.0
7.8750000000e+00 6.1557859980e-01 0.0
8.1562500000e+00 8.1637999156e-01 0.0
8.4375000000e+00 1.0320449316e+00 0.0
8.7187500000e+00 1.1876345004e+00 0.0
9.0000000000e+00 1.2077762062e+00 0.0
0.0000000000e+00 1.3193302628e+00 0.0
2.8125000000e-01 1.3004437680e+00 0.0
5.6250000000e-01 1.1545503861e+00 0.0
8.4375000000e-01 9.5232547010e-01 0.0
1.1250000000e+00 7.6403782092e-01 0.0
1.4062500000e+00 5.9621864774e-01 0.0
1.6875000000e+00 4.9151702468e-01 0.0
1.9687500000e+00 4.6280244544e-01 0.0
2.2500000000e+00 4.6280244544e-01 0.0
2.5312500000e+00 4.6280244544e-01 0.0
2.8125000000e+00 4.6280244544e-01 0.0
3.0937500000e+00 4.6280244544e-01 0.0
3.3750000000e+00 4.6280244544e-01 0.0
3.6562500000e+00 4.6280244544e-01 0.0
3.9375000000e+00 4.6280244544e-01 0.0
4.2187500000e+00 4.6280244544e-01 0.0
4.5000000000e+00 4.6280244544e-01 0.0
4.7812500000e+00 4.6280244544e-01 0.0
5.0625000000e+00 4.6280244544e-01 0.0
5.3437500000e+00 4.6280244544e-01 0.0
5.6250000000e+00 4.6280244544e-01 0.0
5.9062500000e+00 4.6280244544e-01 0.0
6.1875000000e+00 4.6280244544e-01 0.0
6.4687500000e+00 4.6280244544e-01 0.0
6.7500000000e+00 4.6280244544e-01 0.0
7.0312500000e+00 4.6280244544e-01 0.0
7.3125000000e+00 4.9151702468e-01 0.0
7.5937500000e+00 5.9621864774e-01 0.0
7.8750000000e+00 7.6403782092e-01 0.0
8.1562500000e+00 9.5232547010e-01 0.0
8.4375000000e+00 1.1545503861e+00 0.0
8.7187500000e+00 1.3004437680e+00 0.0
9.0000000000e+00 1.3193302628e+00 0.0
0.0000000000e+00 1.4495132424e+00 0.0
2.8125000000e-01 1.4320915722e+00 0.0
5.6250000000e-01 1.2975135877e+00 0.0
8.4375000000e-01 1.1109731070e+00 0.0
1.1250000000e+00 9.3728892765e-01 0.0
1.4062500000e+00 7.8248570235e-01 0.0
1.6875000000e+00 6.8590467030e-01 0.0
1.9687500000e+00 6.5941717548e-01 0.0
2.2500000000e+00 6.5941717548e-01 0.0
2.5312500000e+00 6.5941717548e-01 0.0
2.8125000000e+00 6.5941717548e-01 0.0
3.0937500000e+00 6.5941717548e-01 0.0
3.3750000000e+00 6.5941717548e-01 0.0
3.6562500000e+00 6.5941717548e-01 0.0
3.9375000000e+00 6.5941717548e-01 0.0
4.2187500000e+00 6.5941717548e-01 0.0
4.5000000000e+00 6.5941717548e-01 0.0
4.7812500000e+00 6.5941717548e-01 0.0
5.0625000000e+00 6.5941717548e-01 0.0
5.3437500000e+00 6.5941717548e-01 0.0
5.6250000000e+00 6.5941717548e-01 0.0
5.9062500000e+00 6.5941717548e-01 0.0
6.1875000000e+00 6.5941717548e-01 0.0
6.4687500000e+00 6.5941717548e-01 0.0
6.7500000000e+00 6.5941717548e-01 0.0
7.0312500000e+00 6.5941717548e-01 0.0
7.3125000000e+00 6.8590467030e-01 0.0
7.5937500000e+00 7.8248570235e-01 0.0
7.8750000000e+00 9.3728892765e-01 0.0
8.1562500000e+00 1.1109731070e+00 0.0
8.4375000000e+00 1.2975135877e+00 0.0
8.7187500000e+00 1.4320915722e+00 0.0
9.0000000000e+00 1.4495132424e+00 0.0
0.0000000000e+00 1.5971143014e+00 0.0
2.8125000000e-01 1.5813534446e+00 0.0
5.6250000000e-01 1.4596048228e+00 0.0
8.4375000000e-01 1.2908473063e+00 0.0
1.1250000000e+00 1.1337204957e+00 0.0
1.4062500000e+00 9.9367471176e-01 0.0
1.6875000000e+00 9.0630078063e-01 0.0
1.9687500000e+00 8.8233834724e-01 0.0
2.2500000000e+00 8.8233834724e-01 0.0
2.5312500000e+00 8.8233834724e-01 0.0
2.8125000000e+00 8.8233834724e-01 0.0
3.0937500000e+00 8.8233834724e-01 0.0
3.3750000000e+00 8.8233834724e-01 0.0
3.6562500000e+00 8.8233834724e-01 0.0
3.9375000000e+00 8.8233834724e-01 0.0
4.2187500000e+00 8.8233834724e-01 0.0
4.5000000000e+00 8.8233834724e-01 0.0
4.7812500000e+00 8.8233834724e-01 0.0
5.0625000000e+00 8.8233834724e-01 0.0
5.3437500000e+00 8.8233834724e-01 0.0
5.6250000000e+00 8.8233834724e-01 0.0
5.9062500000e+00 8.8233834724e-01 0.0
6.1875000000e+00 8.8233834724e-01 0.0
6.4687500000e+00 8.8233834724e-01 0.0
6.7500000000e+00 8.8233834724e-01 0.0
7.0312500000e+00 8.8233834724e-01 0.0
7.3125000000e+00 9.0630078063e-01 0.0
7.5937500000e+00 9.9367471176e-01 0.0
7.8750000000e+00 1.1337204957e+00 0.0
8.1562500000e+00 1.2908473063e+00 0.0
8.4375000000e+00 1.4596048228e+00 0.0
8.7187500000e+00 1.5813534446e+00 0.0
9.0000000000e+00 1.5971143014e+00 0.0
0.0000000000e+00 1.7590868131e+00 0.0
2.8125000000e-01 1.7451484779e+00 0.0
5.6250000000e-01 1.6374783736e+00 0.0
8.4375000000e-01 1.4882352927e+00 0.0
1.1250000000e+00 1.3492779901e+00 0.0
1.4062500000e+00 1.2254265334e+00 0.0
1.6875000000e+00 1.1481561697e+00 0.0
1.9687500000e+00 1.1269646551e+00 0.0
2.2500000000e+00 1.1269646551e+00 0.0
2.5312500000e+00 1.1269646551e+00 0.0
2.8125000000e+00 1.1269646551e+00 0.0
3.0937500000e+00 1.1269646551e+00 0.0
3.3750000000e+00 1.1269646551e+00 0.0
3.6562500000e+00 1.1269646551e+00 0.0
3.9375000000e+00 1.1269646551e+00 0.0
4.2187500000e+00 1.1269646551e+00 0.0
4.5000000000e+00 1.1269646551e+00 0.0
4.7812500000e+00 1.1269646551e+00 0.0
5.0625000000e+00 1.1269646551e+00 0.0
5.3437500000e+00 1.1269646551e+00 0.0
5.6250000000e+00 1.1269646551e+00 0.0
5.9062500000e+00 1.1269646551e+00 0.0
6.1875000000e+00 1.1269646551e+00 0.0
6.4687500000e+00 1.1269646551e+00 0.0
6.7500000000e+00 1.1269646551e+00 0.0
7.0312500000e+00 1.1269646551e+00 0.0
7.3125000000e+00 1.1481561697e+00 0.0
7.5937500000e+00 1.2254265334e+00 0.0
7.8750000000e+00 1.3492779901e+00 0.0
8.1562500000e+00 1.4882352927e+00 0.0
8.4375000000e+00 1.6374783736e+00 0.0
8.7187500000e+00 1.7451484779e+00 0.0
9.0000000000e+00 1.7590868131e+00 0.0
0.0000000000e+00 1.9305824874e+00 0.0
2.8125000000e-01 1.9185738289e+00 0.0
5.6250000000e-01 1.8258099875e+00 0.0
8.4375000000e-01 1.6972286922e+00 0.0
1.1250000000e+00 1.5775091725e+00 0.0
1.4062500000e+00 1.4708041873e+00 0.0
1.6875000000e+00 1.4042314297e+00 0.0
1.9687500000e+00 1.3859737498e+00 0.0
2.2500000000e+00 1.3859737498e+00 0.0
2.5312500000e+00 1.3859737498e+00 0.0
2.8125000000e+00 1.3859737498e+00 0.0
3.0937500000e+00 1.3859737498e+00 0.0
3.3750000000e+00 1.3859737498e+00 0.0
3.6562500000e+00 1.3859737498e+00 0.0
3.9375000000e+00 1.3859737498e+00 0.0
4.2187500000e+00 1.3859737498e+00 0.0
4.5000000000e+00 1.3859737498e+00 0.0
4.7812500000e+00 1.3859737498e+00 0.0
5.0625000000e+00 1.3859737498e+00 0.0
5.3437500000e+00 1.3859737498e+00 0.0
5.6250000000e+00 1.3859737498e+00 0.0
5.9062500000e+00 1.3859737498e+00 0.0
6.1875000000e+00 1.3859737498e+00 0.0
6.4687500000e+00 1.3859737498e+00 0.0
6.7500000000e+00 1.3859737498e+00 0.0
7.0312500000e+00 1.3859737498e+00 0.0
7.3125000000e+00 1.4042314297e+00 0.0
7.5937500000e+00 1.4708041873e+00 0.0
[...]
POINT_DATA 528

SCALARS Density double 1
LOOKUP_TABLE default
5.3816720039e-01
5.4410482500e-01
5.4312235539e-01
5.3887198733e-01
5.2439371997e-01
5.0704075547e-01
5.5114974327e-01
5.5524131580e-01
5.6579932978e-01
5.4542677352e-01
5.0785762628e-01
5.0510913308e-01
5.2904765954e-01
6.0320798024e-01
5.8846310569e-01
5.5713310333e-01
4.8128748011e-01
4.7557191636e-01
4.3236765203e-01
4.1806328440e-01
4.1641853278e-01
4.2121520690e-01
4.3893886203e-01
4.4420811735e-01
4.6791610205e-01
4.7187587599e-01
4.7703512066e-01
4.4418725846e-01
3.9562868568e-01
3.8243632827e-01
3.8184605835e-01
4.1417411199e-01
4.0537063357e-01
5.1430625157e-01
5.2858821348e-01
5.5163999253e-01
5.5861355918e-01
5.3816019387e-01
5.4603648250e-01
5.6611030164e-01
5.9002442156e-01
5.6310528905e-01
5.1158702216e-01
4.8744392325e-01
4.7295285331e-01
6.0385686235e-01
6.0834680845e-01
6.1734954061e-01
5.1224681310e-01
4.7087014196e-01
4.5600890836e-01
4.2780315603e-01
4.0196459009e-01
3.8169441319e-01
3.7884522627e-01
3.9866808926e-01
4.4050069212e-01
4.5482129614e-01
4.6866328887e-01
4.5353643676e-01
4.3822021839e-01
4.1977067434e-01
3.8709658249e-01
3.8448658381e-01
3.9074909633e-01
3.8610387826e-01
5.3921684724e-01
5.7551963958e-01
5.7435339904e-01
5.6414931392e-01
5.5946772593e-01
5.7524743443e-01
6.0092918832e-01
5.7665236209e-01
5.2325559609e-01
4.8342153113e-01
4.8964795795e-01
5.9522174113e-01
6.1947926979e-01
6.1116772923e-01
5.1471139954e-01
4.8185991151e-01
4.5817161889e-01
4.2553583467e-01
4.0208717358e-01
3.7236410100e-01
3.7087353801e-01
3.9289199550e-01
4.3019894315e-01
4.5368519288e-01
4.6354822929e-01
4.5589097242e-01
4.5252873948e-01
4.3528805366e-01
4.0821722385e-01
3.8865921701e-01
3.7852150142e-01
3.7628523722e-01
3.9688729265e-01
5.6336902225e-01
5.8061622479e-01
5.7641510466e-01
5.6695811335e-01
5.7806548462e-01
6.0097920341e-01
5.7640831903e-01
5.1882308613e-01
4.7903952444e-01
4.8210708009e-01
6.0103169774e-01
6.1241665148e-01
6.1756838716e-01
5.0742423425e-01
4.8491476731e-01
4.6297441852e-01
4.1667083838e-01
4.0273040012e-01
3.6655998288e-01
3.6921094114e-01
3.9501592711e-01
4.2953298095e-01
4.5525202670e-01
4.6387104773e-01
4.5783928774e-01
4.5694380419e-01
4.4194624368e-01
4.0728975668e-01
3.8679099387e-01
3.7336218983e-01
3.7297970972e-01
3.9635064896e-01
4.4915653141e-01
5.8459110475e-01
5.7519477023e-01
5.6308346134e-01
5.7877544960e-01
5.9942780193e-01
5.7532150120e-01
5.1481179515e-01
4.7707573486e-01
4.7886057802e-01
6.0839152718e-01
6.1302345751e-01
6.2640304237e-01
4.9931892473e-01
4.8488367066e-01
4.6246579120e-01
4.1315928505e-01
4.0082637583e-01
3.6247167393e-01
3.6860597074e-01
3.9828733566e-01
4.3245022483e-01
4.5678397680e-01
4.6586815023e-01
4.5916175880e-01
4.5945038927e-01
4.4356107596e-01
4.0713581273e-01
3.7884269848e-01
3.7025326798e-01
3.7240663164e-01
3.9944625783e-01
4.6053539652e-01
4.6738129145e-01
5.7727741321e-01
5.5920248784e-01
5.8018156605e-01
5.9960015600e-01
5.7441183490e-01
5.1211250026e-01
4.7629327190e-01
4.7700503565e-01
6.1152663880e-01
6.1541916357e-01
6.2707580447e-01
4.9668268858e-01
4.8191347739e-01
4.6467703738e-01
4.1215629099e-01
3.9751944678e-01
3.6121419206e-01
3.6857924243e-01
3.9992506068e-01
4.3405744666e-01
4.5648702858e-01
4.6627327431e-01
4.5978282320e-01
4.6074956102e-01
4.4238870606e-01
4.0530216189e-01
3.7361791397e-01
3.6874120898e-01
3.7320495797e-01
3.9543852407e-01
4.6329625078e-01
4.7008427047e-01
4.8102116628e-01
5.5736488162e-01
5.7945512311e-01
5.9986696917e-01
5.7429720604e-01
5.1101112271e-01
4.7628795118e-01
4.7411179292e-01
6.1340486807e-01
6.1676419860e-01
6.2703467913e-01
4.9532415617e-01
4.7960911229e-01
4.6618161945e-01
4.1162848230e-01
3.9475766263e-01
3.6097249883e-01
3.6816478375e-01
4.0097036815e-01
4.3543299501e-01
4.5620975819e-01
4.6699495415e-01
4.6013573388e-01
4.6189163397e-01
4.4148127089e-01
4.0348108952e-01
3.7104491208e-01
3.6745430171e-01
3.7410612973e-01
3.9297902792e-01
4.6692579040e-01
4.7266774946e-01
4.8091021012e-01
4.9909465925e-01
5.7852075727e-01
6.0020205933e-01
5.7388717790e-01
5.1141718931e-01
4.7722801718e-01
4.7296249600e-01
6.1423060932e-01
6.1716044388e-01
6.2715262379e-01
4.9472519108e-01
4.7813558516e-01
4.6700841699e-01
4.1176584908e-01
3.9284367115e-01
3.6118278877e-01
3.6790389089e-01
4.0145129489e-01
4.3638308556e-01
4.5585662802e-01
4.6752685145e-01
4.5997346122e-01
4.6273445666e-01
4.4093277466e-01
4.0247937966e-01
3.7064904436e-01
3.6667445627e-01
3.7499738868e-01
3.9027663683e-01
4.6890177986e-01
4.7397049813e-01
4.8050858969e-01
5.0157955591e-01
4.9432881127e-01
6.0023835312e-01
5.7421056466e-01
5.1205996790e-01
4.7968479834e-01
4.7278608413e-01
6.1448041474e-01
6.1597693729e-01
6.2742632178e-01
4.9484111459e-01
4.7702534917e-01
4.6719057572e-01
4.1236389307e-01
3.9179192264e-01
3.6175839770e-01
3.6775676560e-01
4.0131057752e-01
4.3704892397e-01
4.5548262947e-01
4.6789762931e-01
4.5935222278e-01
4.6325890553e-01
4.4077484545e-01
4.0216690279e-01
3.7072825148e-01
3.6628676605e-01
3.7562028407e-01
3.8821235624e-01
4.6926168234e-01
4.7507546903e-01
4.7896571402e-01
5.0367644641e-01
4.9324494044e-01
4.9228865676e-01
5.7518907514e-01
5.1537430733e-01
4.8392398089e-01
4.7240853477e-01
6.1400310055e-01
6.1348362767e-01
6.2994725086e-01
4.9592563842e-01
4.7607751837e-01
4.6681314180e-01
4.1345634383e-01
3.9156587187e-01
3.6266596491e-01
3.6769119954e-01
4.0059017732e-01
4.3745861344e-01
4.5505894893e-01
4.6813504617e-01
4.5826842416e-01
4.6348274501e-01
4.4104297710e-01
4.0252054561e-01
3.7122181207e-01
3.6575342690e-01
3.7610622271e-01
3.8734216544e-01
4.6858821810e-01
4.7610128361e-01
4.7757584716e-01
5.0472213834e-01
4.9254052705e-01
4.9060695043e-01
4.2025779553e-01
5.1846698244e-01
4.8859017068e-01
4.7392255070e-01
6.1179618199e-01
6.0998610025e-01
6.3120920167e-01
5.0109389607e-01
4.7504947482e-01
4.6589020860e-01
4.1513964618e-01
3.9211014502e-01
3.6399178937e-01
3.6771118345e-01
3.9937172359e-01
4.3755459299e-01
4.5465241264e-01
4.6820697060e-01
4.5668404971e-01
4.6341493346e-01
4.4172101213e-01
4.0350084181e-01
3.7221944021e-01
3.6500658467e-01
3.7669741198e-01
3.8731038535e-01
4.6724047289e-01
4.7704459374e-01
4.7612511830e-01
5.0604743370e-01
4.9064907253e-01
4.9048609864e-01
4.1982015194e-01
4.1206183716e-01
4.9448041518e-01
4.7944667160e-01
6.0597095039e-01
6.0667688988e-01
6.2940851276e-01
5.0720522853e-01
4.7372893546e-01
4.6445153178e-01
4.1723144601e-01
3.9339240609e-01
3.6582491951e-01
3.6765931766e-01
3.9769877171e-01
4.3713990245e-01
4.5453953845e-01
4.6745997658e-01
4.5471686523e-01
4.6276645711e-01
4.4261992653e-01
4.0511692270e-01
3.7362800119e-01
3.6407352439e-01
3.7732652302e-01
3.8716206747e-01
4.6543893881e-01
4.7761084904e-01
4.7571297035e-01
5.0596647540e-01
4.8862288913e-01
4.9215079409e-01
4.1939496630e-01
4.1236823845e-01
3.9064796379e-01
4.8796457418e-01
5.8919212897e-01
6.0686520102e-01
6.2101506303e-01
5.1244564823e-01
4.7590736769e-01
4.6138696495e-01
4.2055291182e-01
3.9578069422e-01
3.6759727536e-01
3.6798365316e-01
3.9584463032e-01
4.3591891717e-01
4.5438012393e-01
4.6496268213e-01
4.5371584367e-01
4.6063990035e-01
4.4492182736e-01
4.0723525630e-01
3.7486433623e-01
3.6538127683e-01
3.7545123886e-01
3.8924553914e-01
4.6262070912e-01
4.7716821993e-01
4.7727501786e-01
5.0054683553e-01
4.9279408082e-01
4.8613809406e-01
4.2584299294e-01
4.1026688264e-01
3.9351605772e-01
3.9085217623e-01
5.8061102245e-01
6.2446927228e-01
6.0622174783e-01
5.2294280759e-01
4.8029625346e-01
4.5617907580e-01
4.2355588352e-01
3.9754357525e-01
3.6695703402e-01
3.6861351481e-01
3.9362914205e-01
4.3197872625e-01
4.5497278338e-01
4.6154682222e-01
4.5669000815e-01
4.5720991999e-01
4.4733280614e-01
4.0825463160e-01
3.7609905067e-01
3.6524743871e-01
3.7086219458e-01
3.9343428817e-01
4.5727055264e-01
4.7571665015e-01
4.7975873864e-01
4.9623569140e-01
4.9874303877e-01
4.7933775077e-01
4.3561079453e-01
4.0542726336e-01
3.9340562397e-01
3.9222303314e-01
4.2525499577e-01
6.3834113842e-01
6.0924594726e-01
5.3123277250e-01
4.9401322747e-01
4.5501814095e-01
4.1950747663e-01
3.9990638670e-01
3.5191289008e-01
3.5971474448e-01
3.8379505390e-01
4.2087965279e-01
4.5283613463e-01
4.5851500256e-01
4.5802555830e-01
4.5467475498e-01
4.4703399849e-01
4.0533942325e-01
3.6782619819e-01
3.5830839856e-01
3.5978686393e-01
3.8500411499e-01
4.5672644670e-01
4.6662746815e-01
4.8178935003e-01
4.9458987564e-01
5.0141970882e-01
4.8611698229e-01
4.2813091192e-01
4.0832782356e-01
3.7973718133e-01
3.8447658510e-01
4.1643945259e-01
4.5265709494e-01
6.3580974580e-01
5.5874072856e-01
5.1331516548e-01
4.7266253569e-01
4.5107174996e-01
3.9584338947e-01
3.3432031249e-01
3.2494544784e-01
3.4630209815e-01
4.0159802771e-01
4.3572017611e-01
4.4575939840e-01
4.6061574879e-01
4.6565825231e-01
4.7484161295e-01
4.1844225821e-01
3.5680203157e-01
3.3112748175e-01
3.3533994615e-01
3.5596999654e-01
4.2255729014e-01
4.6355469015e-01
4.7323246458e-01
4.8406716502e-01
5.0275821258e-01
5.0478087458e-01
4.5950937165e-01
3.9664097313e-01
3.6560275754e-01
3.6476782405e-01
3.9592565370e-01
4.3757161043e-01
4.5972944829e-01

VECTORS Velocity double
-4.2882083153e-02 8.9001908595e-02 0.0
-5.0576593801e-02 1.1335661157e-01 0.0
-2.5837451759e-02 7.6747016416e-03 0.0
2.7614201630e-03 -3.6180316585e-02 0.0
-1.6213116907e-02 9.0527965544e-03 0.0
-3.3115320598e-04 -2.9528655779e-02 0.0
-6.2041168013e-02 8.5656966776e-02 0.0
3.0886471157e-03 1.0482737325e-02 0.0
-2.6749332876e-02 7.0750045467e-02 0.0
-3.4783351522e-02 4.9155998394e-02 0.0
-3.4125387987e-02 6.7281851317e-02 0.0
-5.8857797002e-02 7.2764418483e-02 0.0
-5.7465487412e-02 1.2030420603e-01 0.0
1.4280401384e-01 -3.5038556611e-02 0.0
1.4237512815e-01 3.0885750197e-03 0.0
1.5039823530e-01 -2.1462463036e-02 0.0
-3.2113951974e-02 -3.8775488753e-03 0.0
-3.2193400483e-02 -2.4396487832e-03 0.0
-3.6401796994e-02 2.6931920200e-03 0.0
-6.6516960623e-02 -1.3070662579e-02 0.0
-4.4279309079e-02 3.9366429146e-02 0.0
-3.6196559258e-02 2.1102325885e-02 0.0
-2.9719192496e-02 -4.5145515675e-03 0.0
4.3179155008e-03 1.6122708546e-02 0.0
6.4383001917e-03 2.0971384449e-02 0.0
8.2518216254e-03 5.0216937377e-03 0.0
1.2026918505e-03 1.7384647136e-02 0.0
1.3761392820e-02 5.8222706508e-04 0.0
2.6026050723e-02 -7.9233777983e-03 0.0
1.4794248133e-01 1.4254776744e-01 0.0
1.6953657474e-01 1.8235346294e-01 0.0
-5.3353360723e-02 -6.6989624275e-02 0.0
-1.6594978804e-02 9.8452125361e-02 0.0
-2.2020271787e-03 -8.1001556151e-02 0.0
1.6823197385e-02 -7.9520743720e-02 0.0
2.7469972579e-02 -2.1934740727e-02 0.0
2.7008029261e-02 -2.3382673930e-04 0.0
-3.1075413524e-02 -3.7018649225e-02 0.0
-4.4580495640e-04 8.6454929634e-04 0.0
-4.5941807631e-03 1.2550654894e-02 0.0
6.0674374130e-03 5.8429065667e-02 0.0
-1.4086727750e-02 3.4420592569e-02 0.0
-1.1901389913e-02 1.1127966852e-02 0.0
-2.5462180224e-02 -8.9256593090e-03 0.0
-3.8344868471e-02 -8.8005263338e-02 0.0
1.3157051617e-01 9.4918743291e-03 0.0
1.4004277864e-01 4.1105210702e-02 0.0
1.5569517872e-01 8.8027473970e-02 0.0
-1.2771382350e-02 5.4781509388e-02 0.0
-3.4692729252e-02 -1.6070524343e-02 0.0
-3.0430225444e-02 3.5458911534e-02 0.0
-7.7610464640e-02 2.9882209585e-02 0.0
-6.9203704802e-02 -2.2672058744e-02 0.0
-6.6224975883e-02 -8.8808021322e-02 0.0
-4.7702163808e-02 -1.2785073184e-01 0.0
-6.2393552876e-03 -8.5596917129e-02 0.0
-5.2200396955e-03 -3.8848694853e-02 0.0
-7.0145264520e-03 -3.9484911969e-02 0.0
9.1334521450e-04 -1.6184242357e-03 0.0
1.7487364552e-03 -3.8244282165e-04 0.0
1.5103183534e-02 7.9608374352e-03 0.0
-1.5651642072e-02 4.8425233345e-02 0.0
-4.1423048096e-02 -6.8278552756e-02 0.0
-4.8924845219e-02 -1.1376481779e-01 0.0
-3.4440581499e-02 -2.5289893090e-02 0.0
-5.2769206262e-02 -9.2517721950e-02 0.0
2.2956286558e-02 -3.3086556969e-02 0.0
1.5298111608e-02 1.0019671769e-03 0.0
8.9441457497e-03 1.3783080429e-02 0.0
-7.9362467273e-03 1.6219886908e-02 0.0
-7.0496914219e-03 2.6212691778e-02 0.0
-7.4553278308e-03 3.5997358103e-02 0.0
6.3841535144e-03 6.6047565285e-02 0.0
-1.2020285346e-02 5.4340673966e-02 0.0
-1.2631544749e-02 2.8285763134e-02 0.0
-2.8755991075e-02 -5.8677173421e-03 0.0
-3.0080271953e-02 -4.6000630399e-02 0.0
1.3201457135e-01 -2.4514980869e-03 0.0
1.4405538582e-01 4.8993756937e-02 0.0
1.5101530483e-01 7.0766515223e-02 0.0
-1.2314708800e-02 6.2379805555e-02 0.0
-3.5033668753e-02 -3.5662312014e-03 0.0
-3.2912348469e-02 2.3288295908e-02 0.0
-7.0717562664e-02 4.2541353057e-02 0.0
-7.4305581676e-02 -3.0313022744e-02 0.0
-6.4178853260e-02 -9.4889906810e-02 0.0
-5.2937201869e-02 -1.3963745668e-01 0.0
-4.9932473348e-03 -1.0137729150e-01 0.0
-5.5313414585e-03 -5.2228415708e-02 0.0
-6.4482404426e-03 -3.8507155795e-02 0.0
-1.5740451160e-04 -1.7655700229e-02 0.0
4.1422322547e-03 -2.3347905828e-03 0.0
2.3319546029e-02 2.8004586248e-02 0.0
-1.5421762887e-02 5.7645724308e-02 0.0
-4.9696583211e-02 -8.3398515608e-03 0.0
-5.2217247961e-02 -8.0344620273e-02 0.0
-4.0199095053e-02 -7.7437141844e-02 0.0
-5.6272062581e-02 -8.0356560578e-02 0.0
-3.0574918311e-02 -9.7863107150e-02 0.0
2.0821893751e-02 -4.0505082476e-03 0.0
1.0289848903e-02 2.2644253678e-02 0.0
-6.3867944753e-03 2.6648384447e-02 0.0
-8.8367095069e-03 3.0682339117e-02 0.0
-8.5393176541e-03 3.6726045892e-02 0.0
1.1045848193e-02 6.0217042244e-02 0.0
-9.2455716189e-03 5.5196712077e-02 0.0
-1.4916764163e-02 1.9259824880e-02 0.0
-2.7393408402e-02 -1.2549233515e-02 0.0
-2.9954053334e-02 -3.9294216563e-02 0.0
1.3239009249e-01 -6.1388219486e-03 0.0
1.4869358169e-01 6.1858313663e-02 0.0
1.4625348035e-01 6.4021474007e-02 0.0
-1.2239629873e-02 6.2731605816e-02 0.0
-3.7580680679e-02 -1.2026515199e-02 0.0
-3.2613630594e-02 1.5827284603e-02 0.0
-6.7330613739e-02 5.2028284541e-02 0.0
-7.8763074474e-02 -4.6520210056e-02 0.0
-6.0221835175e-02 -9.4733729862e-02 0.0
-5.8184942578e-02 -1.4196087407e-01 0.0
-2.7818962808e-03 -9.7403941727e-02 0.0
-6.3087380002e-03 -4.0863967834e-02 0.0
-6.4443095946e-03 -3.5342540062e-02 0.0
-2.9277675222e-04 -2.0766025949e-02 0.0
4.6435626055e-03 1.1925857378e-03 0.0
2.6328183204e-02 2.8022772481e-02 0.0
-9.1675963928e-03 5.3550177837e-02 0.0
-4.1258154143e-02 -3.5896245046e-03 0.0
-5.1775924324e-02 -8.1978195586e-02 0.0
-4.1074991904e-02 -8.7867277535e-02 0.0
-5.0314816065e-02 -7.6672556235e-02 0.0
-2.4224454914e-02 -9.4429664560e-02 0.0
-2.8137629503e-02 -6.2067962678e-02 0.0
1.0928761860e-02 1.5133572875e-02 0.0
-6.0385600421e-03 2.7919347306e-02 0.0
-9.9824014455e-03 3.3044055687e-02 0.0
-7.6725338444e-03 4.0726636842e-02 0.0
1.1573197037e-02 6.2582140351e-02 0.0
-8.0554257620e-03 4.9646786739e-02 0.0
-1.1677845229e-02 1.5854303392e-02 0.0
-2.7621274348e-02 -1.7079484948e-02 0.0
-2.9848372425e-02 -3.7694477780e-02 0.0
1.3371290150e-01 2.7434903509e-03 0.0
1.4789197627e-01 5.7794909795e-02 0.0
1.4463045305e-01 6.5680011733e-02 0.0
-1.5890718836e-02 5.0526141875e-02 0.0
-3.6725632943e-02 -1.0113782548e-02 0.0
-3.2859300660e-02 1.0973243542e-02 0.0
-6.6857256355e-02 4.9638502318e-02 0.0
-7.8167061337e-02 -4.7867017458e-02 0.0
-6.2112612279e-02 -1.0101969346e-01 0.0
-5.8410939029e-02 -1.3955147641e-01 0.0
-3.3862080163e-03 -9.5702218868e-02 0.0
-5.7830593846e-03 -3.8529526438e-02 0.0
-6.5563261892e-03 -3.5212729637e-02 0.0
-2.5054738235e-04 -2.0757669840e-02 0.0
4.4103872417e-03 -1.6634062642e-03 0.0
2.7066364969e-02 3.3404491090e-02 0.0
-2.1823752373e-03 4.7833102658e-02 0.0
-4.1892441049e-02 -5.6038159483e-03 0.0
-4.7645882808e-02 -8.6856848148e-02 0.0
-4.2281403114e-02 -9.6671207705e-02 0.0
-5.2944606616e-02 -7.9070954271e-02 0.0
-1.9243813544e-02 -8.6021289811e-02 0.0
-2.2020441998e-02 -5.4498773435e-02 0.0
-3.5209474055e-02 -1.6127023986e-02 0.0
-4.6435972880e-03 3.0000770347e-02 0.0
-1.4865850939e-02 3.2213103246e-02 0.0
-6.3240075466e-03 4.2451328980e-02 0.0
1.0736679700e-02 6.4150127100e-02 0.0
-7.5119279232e-03 4.7963430490e-02 0.0
-9.3183596163e-03 1.5078832702e-02 0.0
-2.6616221317e-02 -1.9494400331e-02 0.0
-2.9961359102e-02 -3.5434170303e-02 0.0
1.3508710169e-01 9.4180551534e-03 0.0
1.4667804058e-01 5.6179421210e-02 0.0
1.4488596493e-01 6.7114568425e-02 0.0
-1.8531501309e-02 4.3951163867e-02 0.0
-3.6176981851e-02 -1.3492777714e-02 0.0
-3.2850891544e-02 9.5824039267e-03 0.0
-6.6454937768e-02 4.6388768535e-02 0.0
-7.7885177419e-02 -5.1026494186e-02 0.0
-6.3407864262e-02 -1.0435668498e-01 0.0
-5.8325486458e-02 -1.3761464526e-01 0.0
-3.9282878741e-03 -9.3363725241e-02 0.0
-5.3996809323e-03 -3.5769661564e-02 0.0
-6.6392031352e-03 -3.3913444008e-02 0.0
-2.1860524703e-04 -2.0252105658e-02 0.0
4.2214939764e-03 -2.9034088351e-03 0.0
2.7587248952e-02 3.7046523643e-02 0.0
-1.5299383102e-03 4.5736725471e-02 0.0
-4.2291402509e-02 -1.0566676151e-02 0.0
-4.4401062800e-02 -8.8265477248e-02 0.0
-4.3732275449e-02 -1.0139945385e-01 0.0
-5.4338902847e-02 -7.6638583719e-02 0.0
-2.2850789835e-02 -7.3578224879e-02 0.0
-1.5077459179e-02 -4.7908462435e-02 0.0
-3.6622534980e-02 -1.1230409587e-02 0.0
-3.3398062516e-02 -1.7354774821e-02 0.0
-1.6890219548e-02 3.0294258550e-02 0.0
-2.1054544193e-03 4.5311089110e-02 0.0
9.5375845290e-03 6.5121605999e-02 0.0
-7.4603505425e-03 4.7774679648e-02 0.0
-8.7008008802e-03 1.4893233862e-02 0.0
-2.5841115268e-02 -2.0472921259e-02 0.0
-3.8134639105e-02 -3.6320125279e-02 0.0
1.3585000783e-01 1.4184538851e-02 0.0
1.4577374377e-01 5.4279593441e-02 0.0
1.4531504257e-01 6.8388616456e-02 0.0
-2.0405159640e-02 3.8262351971e-02 0.0
-3.5721611340e-02 -1.5254504613e-02 0.0
-3.2808413832e-02 1.0087952875e-02 0.0
-6.6375794871e-02 4.3422540126e-02 0.0
-7.7577369402e-02 -5.2836340460e-02 0.0
-6.4368348560e-02 -1.0604458360e-01 0.0
-5.8154255336e-02 -1.3660832592e-01 0.0
-4.3717549944e-03 -9.1580924813e-02 0.0
-5.1306840664e-03 -3.4295931125e-02 0.0
-6.6899853265e-03 -3.3280793976e-02 0.0
-1.7464012640e-04 -1.9644704083e-02 0.0
4.0674195703e-03 -3.8881933895e-03 0.0
2.7876810633e-02 3.9397213972e-02 0.0
-1.0576075029e-03 4.4368848789e-02 0.0
-4.3208280447e-02 -1.5390532488e-02 0.0
-4.2734744761e-02 -8.8915449299e-02 0.0
-4.5295923630e-02 -1.0380045515e-01 0.0
-5.4967942181e-02 -7.5624721396e-02 0.0
-2.4950475530e-02 -6.6368269248e-02 0.0
-1.9942765131e-02 -4.3483752767e-02 0.0
-3.7728710612e-02 -9.9611579661e-03 0.0
-3.1389361123e-02 -1.8152252624e-02 0.0
4.5620039110e-04 -1.2996385969e-02 0.0
-9.3645658720e-04 4.7022361223e-02 0.0
5.2472470873e-03 6.7539563524e-02 0.0
-7.4687731736e-03 4.9300801694e-02 0.0
-8.8915572230e-03 1.6535674154e-02 0.0
-2.5447497824e-02 -2.0299668527e-02 0.0
-4.4723439627e-02 -3.9108865363e-02 0.0
1.3042016641e-01 1.6002766211e-02 0.0
1.4515005267e-01 5.2373285980e-02 0.0
1.4575497482e-01 7.0090130473e-02 0.0
-2.1650344153e-02 3.4298456250e-02 0.0
-3.5356753034e-02 -1.6021020996e-02 0.0
-3.2720219979e-02 1.1254984947e-02 0.0
-6.6555754232e-02 4.0756557567e-02 0.0
-7.7177408237e-02 -5.3422700546e-02 0.0
-6.5108293917e-02 -1.0708917032e-01 0.0
-5.7829786803e-02 -1.3626272121e-01 0.0
-4.7161236280e-03 -9.0307514743e-02 0.0
-4.9626418645e-03 -3.3675879288e-02 0.0
-6.7253673772e-03 -3.3100223207e-02 0.0
-1.0613980176e-04 -1.8937252799e-02 0.0
3.9442942518e-03 -4.8835724694e-03 0.0
2.7957279796e-02 4.0802845797e-02 0.0
-6.8858912046e-04 4.3791593748e-02 0.0
-4.3820452668e-02 -1.8293616110e-02 0.0
-4.2647873801e-02 -8.9304905985e-02 0.0
-4.6306344093e-02 -1.0415706496e-01 0.0
-5.4968736186e-02 -7.4756174518e-02 0.0
-2.7722187045e-02 -6.2420289248e-02 0.0
-2.4022063216e-02 -3.9244555554e-02 0.0
-3.6338674611e-02 -9.4694724213e-03 0.0
-2.9496167745e-02 -1.8130006492e-02 0.0
2.8602612871e-03 -1.0528842881e-02 0.0
5.9181974783e-03 6.3030234014e-03 0.0
3.6934929491e-03 6.9083988696e-02 0.0
-1.1267954811e-02 5.0407641688e-02 0.0
-9.0704419361e-03 1.9847703115e-02 0.0
-2.4945621583e-02 -1.9158207069e-02 0.0
-4.7660475466e-02 -4.3592361191e-02 0.0
1.2625008461e-01 1.6516688926e-02 0.0
1.4478408097e-01 5.0763677558e-02 0.0
1.4636476662e-01 7.2285920641e-02 0.0
-2.2352157326e-02 3.1919775707e-02 0.0
-3.5105759054e-02 -1.6299919643e-02 0.0
-3.2577163267e-02 1.3112505287e-02 0.0
-6.7029717037e-02 3.8590734366e-02 0.0
-7.6652864758e-02 -5.2961892439e-02 0.0
-6.5680494898e-02 -1.0778652629e-01 0.0