# vtk DataFile Version 3.0
D2Q9 Periodic Hill Flow at timestep 21000
ASCII
DATASET STRUCTURED_GRID
DIMENSIONS 33 16 1
POINTS 528 double
0.0000000000e+00 1.0381750000e+00 0.0
2.8125000000e-01 1.0161249342e+00 0.0
5.6250000000e-01 8.4579376806e-01 0.0
8.4375000000e-01 6.0969528778e-01 0.0
1.1250000000e+00 3.8986862790e-01 0.0
1.4062500000e+00 1.9393900392e-01 0.0
1.6875000000e+00 7.1699397761e-02 0.0
1.9687500000e+00 3.8175000000e-02 0.0
2.2500000000e+00 3.8175000000e-02 0.0
2.5312500000e+00 3.8175000000e-02 0.0
2.8125000000e+00 3.8175000000e-02 0.0
3.0937500000e+00 3.8175000000e-02 0.0
3.3750000000e+00 3.8175000000e-02 0.0
3.6562500000e+00 3.8175000000e-02 0.0
3.9375000000e+00 3.8175000000e-02 0.0
4.2187500000e+00 3.8175000000e-02 0.0
4.5000000000e+00 3.8175000000e-02 0.0
4.7812500000e+00 3.8175000000e-02 0.0
5.0625000000e+00 3.8175000000e-02 0.0
5.3437500000e+00 3.8175000000e-02 0.0
5.6250000000e+00 3.8175000000e-02 0.0
5.9062500000e+00 3.8175000000e-02 0.0
6.1875000000e+00 3.8175000000e-02 0.0
6.4687500000e+00 3.8175000000e-02 0.0
6.7500000000e+00 3.8175000000e-02 0.0
7.0312500000e+00 3.8175000000e-02 0.0
7.3125000000e+00 7.1699397761e-02 0.0
7.5937500000e+00 1.9393900392e-01 0.0
7.8750000000e+00 3.8986862790e-01 0.0
8.1562500000e+00 6.0969528778e-01 0.0
8.4375000000e+00 8.4579376806e-01 0.0
8.7187500000e+00 1.0161249342e+00 0.0
9.0000000000e+00 1.0381750000e+00 0.0
0.0000000000e+00 1.1145250000e+00 0.0
2.8125000000e-01 1.0933340277e+00 0.0
5.6250000000e-01 9.2963914074e-01 0.0
8.4375000000e-01 7.0273930254e-01 0.0
1.1250000000e+00 4.9147731772e-01 0.0
1.4062500000e+00 3.0318131545e-01 0.0
1.6875000000e+00 1.8570429135e-01 0.0
1.9687500000e+00 1.5348603896e-01 0.0
2.2500000000e+00 1.5348603896e-01 0.0
2.5312500000e+00 1.5348603896e-01 0.0
2.8125000000e+00 1.5348603896e-01 0.0
3.0937500000e+00 1.5348603896e-01 0.0
3.3750000000e+00 1.5348603896e-01 0.0
3.6562500000e+00 1.5348603896e-01 0.0
3.9375000000e+00 1.5348603896e-01 0.0
4.2187500000e+00 1.5348603896e-01 0.0
4.5000000000e+00 1.5348603896e-01 0.0
4.7812500000e+00 1.5348603896e-01 0.0
5.0625000000e+00 1.5348603896e-01 0.0
5.3437500000e+00 1.5348603896e-01 0.0
5.6250000000e+00 1.5348603896e-01 0.0
5.9062500000e+00 1.5348603896e-01 0.0
6.1875000000e+00 1.5348603896e-01 0.0
6.4687500000e+00 1.5348603896e-01 0.0
6.7500000000e+00 1.5348603896e-01 0.0
7.0312500000e+00 1.5348603896e-01 0.0
7.3125000000e+00 1.8570429135e-01 0.0
7.5937500000e+00 3.0318131545e-01 0.0
7.8750000000e+00 4.9147731772e-01 0.0
8.1562500000e+00 7.0273930254e-01 0.0
8.4375000000e+00 9.2963914074e-01 0.0
8.7187500000e+00 1.0933340277e+00 0.0
9.0000000000e+00 1.1145250000e+00 0.0
0.0000000000e+00 1.2077762062e+00 0.0
2.8125000000e-01 1.1876345004e+00 0.0
5.6250000000e-01 1.0320449316e+00 0.0
8.4375000000e-01 8.1637999156e-01 0.0
1.1250000000e+00 6.1557859980e-01 0.0
1.4062500000e+00 4.3660603476e-01 0.0
1.6875000000e+00 3.2494586098e-01 0.0
1.9687500000e+00 2.9432288862e-01 0.0
2.2500000000e+00 2.9432288862e-01 0.0
2.5312500000e+00 2.9432288862e-01 0.0
2.8125000000e+00 2.9432288862e-01 0.0
3.0937500000e+00 2.9432288862e-01 0.0
3.3750000000e+00 2.9432288862e-01 0.0
3.6562500000e+00 2.9432288862e-01 0.0
3.9375000000e+00 2.9432288862e-01 0.0
4.2187500000e+00 2.9432288862e-01 0.0
4.5000000000e+00 2.9432288862e-01 0.0
4.7812500000e+00 2.9432288862e-01 0.0
5.0625000000e+00 2.9432288862e-01 0.0
5.3437500000e+00 2.9432288862e-01 0.0
5.6250000000e+00 2.9432288862e-01 0.0
5.9062500000e+00 2.9432288862e-01 0.0
6.1875000000e+00 2.9432288862e-01 0.0
6.4687500000e+00 2.9432288862e-01 0.0
6.7500000000e+00 2.9432288862e-01 0.0
7.0312500000e+00 2.9432288862e-01 0.0
7.3125000000e+00 3.2494586098e-01 0.0
7.5937500000e+00 4.3660603476e-01 0.0
7.8750000000e+00 6.1557859980e-01 0.0
8.1562500000e+00 8.1637999156e-01 0.0
8.4375000000e+00 1.0320449316e+00 0.0
8.7187500000e+00 1.1876345004e+00 0.0
9.0000000000e+00 1.2077762062e+00 0.0
0.0000000000e+00 1.3193302628e+00 0.0
2.8125000000e-01 1.3004437680e+00 0.0
5.6250000000e-01 1.1545503861e+00 0.0
8.4375000000e-01 9.5232547010e-01 0.0
1.1250000000e+00 7.6403782092e-01 0.0
1.4062500000e+00 5.9621864774e-01 0.0
1.6875000000e+00 4.9151702468e-01 0.0
1.9687500000e+00 4.6280244544e-01 0.0
2.2500000000e+00 4.6280244544e-01 0.0
2.5312500000e+00 4.6280244544e-01 0.0
2.8125000000e+00 4.6280244544e-01 0.0
3.0937500000e+00 4.6280244544e-01 0.0
3.3750000000e+00 4.6280244544e-01 0.0
3.6562500000e+00 4.6280244544e-01 0.0
3.9375000000e+00 4.6280244544e-01 0.0
4.2187500000e+00 4.6280244544e-01 0.0
4.5000000000e+00 4.6280244544e-01 0.0
4.7812500000e+00 4.6280244544e-01 0.0
5.0625000000e+00 4.6280244544e-01 0.0
5.3437500000e+00 4.6280244544e-01 0.0
5.6250000000e+00 4.6280244544e-01 0.0
5.9062500000e+00 4.6280244544e-01 0.0
6.1875000000e+00 4.6280244544e-01 0.0
6.4687500000e+00 4.6280244544e-01 0.0
6.7500000000e+00 4.6280244544e-01 0.0
7.0312500000e+00 4.6280244544e-01 0.0
7.3125000000e+00 4.9151702468e-01 0.0
7.5937500000e+00 5.9621864774e-01 0.0
7.8750000000e+00 7.6403782092e-01 0.0
8.1562500000e+00 9.5232547010e-01 0.0
8.4375000000e+00 1.1545503861e+00 0.0
8.7187500000e+00 1.3004437680e+00 0.0
9.0000000000e+00 1.3193302628e+00 0.0
0.0000000000e+00 1.4495132424e+00 0.0
2.8125000000e-01 1.4320915722e+00 0.0
5.6250000000e-01 1.2975135877e+00 0.0
8.4375000000e-01 1.1109731070e+00 0.0
1.1250000000e+00 9.3728892765e-01 0.0
1.4062500000e+00 7.8248570235e-01 0.0
1.6875000000e+00 6.8590467030e-01 0.0
1.9687500000e+00 6.5941717548e-01 0.0
2.2500000000e+00 6.5941717548e-01 0.0
2.5312500000e+00 6.5941717548e-01 0.0
2.8125000000e+00 6.5941717548e-01 0.0
3.0937500000e+00 6.5941717548e-01 0.0
3.3750000000e+00 6.5941717548e-01 0.0
3.6562500000e+00 6.5941717548e-01 0.0
3.9375000000e+00 6.5941717548e-01 0.0
4.2187500000e+00 6.5941717548e-01 0.0
4.5000000000e+00 6.5941717548e-01 0.0
4.7812500000e+00 6.5941717548e-01 0.0
5.0625000000e+00 6.5941717548e-01 0.0
5.3437500000e+00 6.5941717548e-01 0.0
5.6250000000e+00 6.5941717548e-01 0.0
5.9062500000e+00 6.5941717548e-01 0.0
6.1875000000e+00 6.5941717548e-01 0.0
6.4687500000e+00 6.5941717548e-01 0.0
6.7500000000e+00 6.5941717548e-01 0.0
7.0312500000e+00 6.5941717548e-01 0.0
7.3125000000e+00 6.8590467030e-01 0.0
7.5937500000e+00 7.8248570235e-01 0.0
7.8750000000e+00 9.3728892765e-01 0.0
8.1562500000e+00 1.1109731070e+00 0.0
8.4375000000e+00 1.2975135877e+00 0.0
8.7187500000e+00 1.4320915722e+00 0.0
9.0000000000e+00 1.4495132424e+00 0.0
0.0000000000e+00 1.5971143014e+00 0.0
2.8125000000e-01 1.5813534446e+00 0.0
5.6250000000e-01 1.4596048228e+00 0.0
8.4375000000e-01 1.2908473063e+00 0.0
1.1250000000e+00 1.1337204957e+00 0.0
1.4062500000e+00 9.9367471176e-01 0.0
1.6875000000e+00 9.0630078063e-01 0.0
1.9687500000e+00 8.8233834724e-01 0.0
2.2500000000e+00 8.8233834724e-01 0.0
2.5312500000e+00 8.8233834724e-01 0.0
2.8125000000e+00 8.8233834724e-01 0.0
3.0937500000e+00 8.8233834724e-01 0.0
3.3750000000e+00 8.8233834724e-01 0.0
3.6562500000e+00 8.8233834724e-01 0.0
3.9375000000e+00 8.8233834724e-01 0.0
4.2187500000e+00 8.8233834724e-01 0.0
4.5000000000e+00 8.8233834724e-01 0.0
4.7812500000e+00 8.8233834724e-01 0.0
5.0625000000e+00 8.8233834724e-01 0.0
5.3437500000e+00 8.8233834724e-01 0.0
5.6250000000e+00 8.8233834724e-01 0.0
5.9062500000e+00 8.8233834724e-01 0.0
6.1875000000e+00 8.8233834724e-01 0.0
6.4687500000e+00 8.8233834724e-01 0.0
6.7500000000e+00 8.8233834724e-01 0.0
7.0312500000e+00 8.8233834724e-01 0.0
7.3125000000e+00 9.0630078063e-01 0.0
7.5937500000e+00 9.9367471176e-01 0.0
7.8750000000e+00 1.1337204957e+00 0.0
8.1562500000e+00 1.2908473063e+00 0.0
8.4375000000e+00 1.4596048228e+00 0.0
8.7187500000e+00 1.5813534446e+00 0.0
9.0000000000e+00 1.5971143014e+00 0.0
0.0000000000e+00 1.7590868131e+00 0.0
2.8125000000e-01 1.7451484779e+00 0.0
5.6250000000e-01 1.6374783736e+00 0.0
8.4375000000e-01 1.4882352927e+00 0.0
1.1250000000e+00 1.3492779901e+00 0.0
1.4062500000e+00 1.2254265334e+00 0.0
1.6875000000e+00 1.1481561697e+00 0.0
1.9687500000e+00 1.1269646551e+00 0.0
2.2500000000e+00 1.1269646551e+00 0.0
2.5312500000e+00 1.1269646551e+00 0.0
2.8125000000e+00 1.1269646551e+00 0.0
3.0937500000e+00 1.1269646551e+00 0.0
3.3750000000e+00 1.1269646551e+00 0.0
3.6562500000e+00 1.1269646551e+00 0.0
3.9375000000e+00 1.1269646551e+00 0.0
4.2187500000e+00 1.1269646551e+00 0.0
4.5000000000e+00 1.1269646551e+00 0.0
4.7812500000e+00 1.1269646551e+00 0.0
5.0625000000e+00 1.1269646551e+00 0.0
5.3437500000e+00 1.1269646551e+00 0.0
5.6250000000e+00 1.1269646551e+00 0.0
5.9062500000e+00 1.1269646551e+00 0.0
6.1875000000e+00 1.1269646551e+00 0.0
6.4687500000e+00 1.1269646551e+00 0.0
6.7500000000e+00 1.1269646551e+00 0.0
7.0312500000e+00 1.1269646551e+00 0.0
7.3125000000e+00 1.1481561697e+00 0.0
7.5937500000e+00 1.2254265334e+00 0.0
7.8750000000e+00 1.3492779901e+00 0.0
8.1562500000e+00 1.4882352927e+00 0.0
8.4375000000e+00 1.6374783736e+00 0.0
8.7187500000e+00 1.7451484779e+00 0.0
9.0000000000e+00 1.7590868131e+00 0.0
0.0000000000e+00 1.9305824874e+00 0.0
2.8125000000e-01 1.9185738289e+00 0.0
5.6250000000e-01 1.8258099875e+00 0.0
8.4375000000e-01 1.6972286922e+00 0.0
1.1250000000e+00 1.5775091725e+00 0.0
1.4062500000e+00 1.4708041873e+00 0.0
1.6875000000e+00 1.4042314297e+00 0.0
1.9687500000e+00 1.3859737498e+00 0.0
2.2500000000e+00 1.3859737498e+00 0.0
2.5312500000e+00 1.3859737498e+00 0.0
2.8125000000e+00 1.3859737498e+00 0.0
3.0937500000e+00 1.3859737498e+00 0.0
3.3750000000e+00 1.3859737498e+00 0.0
3.6562500000e+00 1.3859737498e+00 0.0
3.9375000000e+00 1.3859737498e+00 0.0
4.2187500000e+00 1.3859737498e+00 0.0
4.5000000000e+00 1.3859737498e+00 0.0
4.7812500000e+00 1.3859737498e+00 0.0
5.0625000000e+00 1.3859737498e+00 0.0
5.3437500000e+00 1.3859737498e+00 0.0
5.6250000000e+00 1.3859737498e+00 0.0
5.9062500000e+00 1.3859737498e+00 0.0
6.1875000000e+00 1.3859737498e+00 0.0
6.4687500000e+00 1.3859737498e+00 0.0
6.7500000000e+00 1.3859737498e+00 0.0
7.0312500000e+00 1.3859737498e+00 0.0
7.3125000000e+00 1.4042314297e+00 0.0
7.5937500000e+00 1.4708041873e+00 0.0
[...]
POINT_DATA 528

SCALARS Density double 1
LOOKUP_TABLE default
5.3645019381e-01
5.4368336590e-01
5.4199882889e-01
5.3773874862e-01
5.2334138502e-01
5.0654986187e-01
5.5111510039e-01
5.5383624555e-01
5.6390497959e-01
5.4388646784e-01
5.0642362430e-01
5.0438156858e-01
5.2894429691e-01
6.0321564278e-01
5.8848814525e-01
5.5704505389e-01
4.8163080097e-01
4.7534227516e-01
4.3414948416e-01
4.1923578214e-01
4.1711833237e-01
4.2171146749e-01
4.3978481070e-01
4.4485773448e-01
4.6805271928e-01
4.7221347554e-01
4.7741293674e-01
4.4522096198e-01
3.9823505018e-01
3.8912111663e-01
3.8855716137e-01
4.1452038838e-01
4.0644029568e-01
5.1293313231e-01
5.2812635267e-01
5.5014911446e-01
5.5733606615e-01
5.3739275884e-01
5.4520283737e-01
5.6447813405e-01
5.8796014792e-01
5.6125569993e-01
5.0965114522e-01
4.8635050042e-01
4.7261618920e-01
6.0386480646e-01
6.0834760510e-01
6.1731461486e-01
5.1241592412e-01
4.7043343980e-01
4.5770350637e-01
4.2789022172e-01
4.0221565250e-01
3.8283873095e-01
3.8074067332e-01
3.9988595948e-01
4.4086609011e-01
4.5527242617e-01
4.6881445989e-01
4.5430960224e-01
4.3905638737e-01
4.2169552046e-01
3.8985920330e-01
3.8621352416e-01
3.9129753262e-01
3.8689722355e-01
5.3852470533e-01
5.7451461425e-01
5.7291872269e-01
5.6309693116e-01
5.5862811739e-01
5.7326568710e-01
5.9865257522e-01
5.7487033409e-01
5.2153835612e-01
4.8236619620e-01
4.8934183678e-01
5.9528097279e-01
6.1950296746e-01
6.1116973519e-01
5.1472306127e-01
4.8183740573e-01
4.5907922156e-01
4.2611115825e-01
4.0192251247e-01
3.7355120170e-01
3.7262226306e-01
3.9396204111e-01
4.3058927197e-01
4.5403365501e-01
4.6386986913e-01
4.5644117795e-01
4.5272691950e-01
4.3641086801e-01
4.1010751015e-01
3.8976477636e-01
3.7909619766e-01
3.7710534564e-01
3.9731259092e-01
5.6202179700e-01
5.7925901743e-01
5.7532313946e-01
5.6613287218e-01
5.7612168270e-01
5.9841390726e-01
5.7448725322e-01
5.1706718197e-01
4.7794908406e-01
4.8167426290e-01
6.0105970244e-01
6.1236995832e-01
6.1756066206e-01
5.0742143559e-01
4.8492023319e-01
4.6362575673e-01
4.1748038318e-01
4.0244054792e-01
3.6787860330e-01
3.7100364059e-01
3.9622429201e-01
4.3001768878e-01
4.5565851285e-01
4.6419797160e-01
4.5842019249e-01
4.5682798027e-01
4.4259003142e-01
4.0915619391e-01
3.8802458860e-01
3.7424294108e-01
3.7394249029e-01
3.9664765050e-01
4.4938810993e-01
5.8321931821e-01
5.7409376679e-01
5.6229847534e-01
5.7680022244e-01
5.9681171450e-01
5.7337105080e-01
5.1319718257e-01
4.7601583207e-01
4.7845032217e-01
6.0846179997e-01
6.1299317287e-01
6.2641262961e-01
4.9931993833e-01
4.8486683523e-01
4.6308695551e-01
4.1388129330e-01
4.0067552996e-01
3.6383005965e-01
3.7046576376e-01
3.9943815028e-01
4.3280453943e-01
4.5714825184e-01
4.6616161620e-01
4.5977192569e-01
4.5925851329e-01
4.4399522770e-01
4.0888665264e-01
3.8037370708e-01
3.7124795515e-01
3.7345226552e-01
3.9939478044e-01
4.6050604103e-01
4.6739406614e-01
5.7616123632e-01
5.5863070000e-01
5.7821816170e-01
5.9704293155e-01
5.7247641532e-01
5.1055329575e-01
4.7534308726e-01
4.7660117899e-01
6.1158731816e-01
6.1539016940e-01
6.2708542645e-01
4.9668388902e-01
4.8187707471e-01
4.6529352828e-01
4.1277842031e-01
3.9750681567e-01
3.6261625835e-01
3.7043740994e-01
4.0104477980e-01
4.3439720497e-01
4.5687096046e-01
4.6656212053e-01
4.6040841556e-01
4.6052450245e-01
4.4284906614e-01
4.0702613879e-01
3.7539675724e-01
3.6985783261e-01
3.7423353964e-01
3.9544885370e-01
4.6303919252e-01
4.7006780892e-01
4.8101188256e-01
5.5686830084e-01
5.7778363310e-01
5.9738546630e-01
5.7236701231e-01
5.0948522896e-01
4.7542666866e-01
4.7378916342e-01
6.1345812573e-01
6.1674081514e-01
6.2704009637e-01
4.9532706542e-01
4.7955198315e-01
4.6681836211e-01
4.1214490828e-01
3.9487463331e-01
3.6238062317e-01
3.7002382842e-01
4.0207444649e-01
4.3576330074e-01
4.5660123568e-01
4.6727954181e-01
4.6077505561e-01
4.6163971210e-01
4.4197002707e-01
4.0521646091e-01
3.7295433318e-01
3.6871557227e-01
3.7512244098e-01
3.9309858993e-01
4.6671844127e-01
4.7266032922e-01
4.8090549239e-01
4.9905580105e-01
5.7704774264e-01
5.9808125943e-01
5.7197235781e-01
5.0988425199e-01
4.7638579733e-01
4.7273689586e-01
6.1433566071e-01
6.1714315088e-01
6.2715515737e-01
4.9473318830e-01
4.7805689077e-01
4.6768920618e-01
4.1218378257e-01
3.9305729797e-01
3.6258515955e-01
3.6976630336e-01
4.0254172408e-01
4.3671013706e-01
4.5625521276e-01
4.6780267310e-01
4.6062551707e-01
4.6245857166e-01
4.4144511710e-01
4.0421989315e-01
3.7255678995e-01
3.6801788485e-01
3.7597759081e-01
3.9053071861e-01
4.6875500307e-01
4.7398379530e-01
4.8049769824e-01
5.0153364885e-01
4.9448035509e-01
5.9828403439e-01
5.7236074299e-01
5.1052664585e-01
4.7882346188e-01
4.7262364600e-01
6.1461878769e-01
6.1596060834e-01
6.2742429379e-01
4.9485599761e-01
4.7692158582e-01
4.6793907858e-01
4.1269156105e-01
3.9206466566e-01
3.6314972780e-01
3.6962083123e-01
4.0239442963e-01
4.3737414815e-01
4.5588801569e-01
4.6816179801e-01
4.6002147695e-01
4.6296302831e-01
4.4130482406e-01
4.0391016136e-01
3.7262621694e-01
3.6763757737e-01
3.7657512543e-01
3.8860734414e-01
4.6918798898e-01
4.7508875596e-01
4.7896561290e-01
5.0362632369e-01
4.9342885396e-01
4.9226202667e-01
5.7338236445e-01
5.1368591546e-01
4.8304203043e-01
4.7226935713e-01
6.1414056006e-01
6.1347403692e-01
6.2994202758e-01
4.9595185048e-01
4.7594543561e-01
4.6765283380e-01
4.1370217978e-01
3.9185986550e-01
3.6404105811e-01
3.6955691142e-01
4.0167456813e-01
4.3778157974e-01
4.5547379039e-01
4.6838355042e-01
4.5895847497e-01
4.6317088923e-01
4.4158366620e-01
4.0426446976e-01
3.7310447679e-01
3.6710873146e-01
3.7705999511e-01
3.8782766700e-01
4.6858633451e-01
4.7610795456e-01
4.7759133444e-01
5.0463837337e-01
4.9274452444e-01
4.9064051169e-01
4.2162391239e-01
5.1670631138e-01
4.8761843533e-01
4.7379935399e-01
6.1191682617e-01
6.0998617145e-01
6.3120632066e-01
5.0112127435e-01
4.7489182415e-01
4.6684073661e-01
4.1531380714e-01
3.9238674238e-01
3.6534433348e-01
3.6957769423e-01
4.0046172315e-01
4.3787579916e-01
4.5507401589e-01
4.6843584348e-01
4.5739790789e-01
4.6309311319e-01
4.4226521860e-01
4.0524235009e-01
3.7408117089e-01
3.6636335792e-01
3.7765465429e-01
3.8779996832e-01
4.6728121206e-01
4.7704483641e-01
4.7615313311e-01
5.0591632637e-01
4.9091972819e-01
4.9056602996e-01
4.2130370032e-01
4.1243459049e-01
4.9345929707e-01
4.7921283685e-01
6.0607109989e-01
6.0668058793e-01
6.2939391785e-01
5.0719903893e-01
4.7359774941e-01
4.6550202783e-01
4.1735218393e-01
3.9361389483e-01
3.6714728213e-01
3.6952327450e-01
3.9880188652e-01
4.3746837874e-01
4.5495756946e-01
4.6768547151e-01
4.5543756326e-01
4.6245022486e-01
4.4316150530e-01
4.0684899586e-01
3.7545827150e-01
3.6543112089e-01
3.7829076958e-01
3.8765826646e-01
4.6548766499e-01
4.7761423140e-01
4.7573657853e-01
5.0582577170e-01
4.8894653104e-01
4.9212568848e-01
4.2099707290e-01
4.1279398713e-01
3.9149261617e-01
4.8766834828e-01
5.8922420334e-01
6.0688152760e-01
6.2101737301e-01
5.1250389616e-01
4.7582191482e-01
4.6247390956e-01
4.2070167385e-01
3.9589356631e-01
3.6889346871e-01
3.6984393987e-01
3.9695664003e-01
4.3627202656e-01
4.5476794567e-01
4.6524324616e-01
4.5442578722e-01
4.6041895154e-01
4.4542821717e-01
4.0896898097e-01
3.7666108295e-01
3.6673972796e-01
3.7642937828e-01
3.8974856711e-01
4.6268357421e-01
4.7717143167e-01
4.7727386360e-01
5.0049397013e-01
4.9301365124e-01
4.8627411384e-01
4.2719818853e-01
4.1084078968e-01
3.9425644183e-01
3.9160865675e-01
5.8062325825e-01
6.2447113379e-01
6.0622352370e-01
5.2294162037e-01
4.8036351739e-01
4.5695262228e-01
4.2402176816e-01
3.9730727885e-01
3.6834371208e-01
3.7038839386e-01
3.9477599465e-01
4.3236713065e-01
4.5532611424e-01
4.6191266042e-01
4.5719029774e-01
4.5711296838e-01
4.4765856791e-01
4.1001226837e-01
3.7788004618e-01
3.6659549739e-01
3.7186812978e-01
3.9395219712e-01
4.5735466906e-01
4.7571957100e-01
4.7975798715e-01
4.9623610647e-01
4.9879933530e-01
4.7959241329e-01
4.3642120414e-01
4.0633370644e-01
3.9403236442e-01
3.9292110636e-01
4.2543700105e-01
6.3832000473e-01
6.0924905538e-01
5.3123569769e-01
4.9401572665e-01
4.5541592287e-01
4.1984804749e-01
3.9917667624e-01
3.5348520580e-01
3.6152232652e-01
3.8502478098e-01
4.2130054895e-01
4.5322844783e-01
4.5888237782e-01
4.5854439165e-01
4.5463563305e-01
4.4737424787e-01
4.0711476276e-01
3.6972523305e-01
3.5965503666e-01
3.6092763183e-01
3.8556237552e-01
4.5683208269e-01
4.6665003691e-01
4.8177891642e-01
4.9459392853e-01
5.0141869945e-01
4.8631743914e-01
4.2903999623e-01
4.0917385276e-01
3.8065691473e-01
3.8514813099e-01
4.1671998115e-01
4.5253733957e-01
6.3583266005e-01
5.5875200076e-01
5.1330990764e-01
4.7266012146e-01
4.5093501304e-01
3.9489308566e-01
3.3568932318e-01
3.2663084418e-01
3.4783986008e-01
4.0209879211e-01
4.3607910188e-01
4.4612975468e-01
4.6111881463e-01
4.6584087338e-01
4.7446177084e-01
4.1946670920e-01
3.5884557912e-01
3.3282952860e-01
3.3669822651e-01
3.5671429403e-01
4.2281065543e-01
4.6355873849e-01
4.7322828860e-01
4.8407197193e-01
5.0275551330e-01
5.0478185573e-01
4.6055757161e-01
3.9753080811e-01
3.6647283796e-01
3.6563939627e-01
3.9634408096e-01
4.3755863286e-01
4.5957915551e-01

VECTORS Velocity double
-4.1990477456e-02 9.1704624980e-02 0.0
-5.0106152123e-02 1.1458407529e-01 0.0
-2.7168408019e-02 8.9452675745e-03 0.0
2.7663168205e-03 -3.6253382995e-02 0.0
-1.6191336146e-02 8.5747868032e-03 0.0
-5.6222998521e-05 -2.9690176816e-02 0.0
-6.0753571822e-02 8.5995133569e-02 0.0
3.3912293540e-03 1.1906610712e-02 0.0
-2.4390945646e-02 7.1724604151e-02 0.0
-3.1723711881e-02 5.1429390705e-02 0.0
-3.2473988772e-02 6.9335664704e-02 0.0
-5.7682574081e-02 7.4663312714e-02 0.0
-5.6924703918e-02 1.2111888867e-01 0.0
1.4269957040e-01 -3.4977236342e-02 0.0
1.4227621420e-01 3.1321658380e-03 0.0
1.5029036228e-01 -2.1399950312e-02 0.0
-3.2167680658e-02 -3.4443846010e-03 0.0
-3.2366406824e-02 -3.4305324235e-03 0.0
-3.6173962136e-02 3.7458951752e-03 0.0
-6.0674176289e-02 -1.4531757158e-02 0.0
-4.2203716604e-02 3.7341746136e-02 0.0
-3.5535130146e-02 1.0820243918e-02 0.0
-2.8421581567e-02 -7.9304537213e-03 0.0
4.8966185372e-03 1.5492609169e-02 0.0
7.1289499528e-03 2.0018570939e-02 0.0
9.0441149319e-03 5.1900482934e-03 0.0
1.6277623287e-03 1.6514014026e-02 0.0
1.3647869937e-02 9.0213963377e-04 0.0
2.6263387206e-02 -7.6742005199e-03 0.0
1.2868077055e-01 1.2297960768e-01 0.0
1.5140985825e-01 1.6284661144e-01 0.0
-4.9539472354e-02 -6.6745894475e-02 0.0
-1.5694024482e-02 9.3571469197e-02 0.0
-3.2291502812e-04 -8.1907974988e-02 0.0
1.7522769742e-02 -7.9192390029e-02 0.0
2.7810536758e-02 -2.2625650354e-02 0.0
2.7357268926e-02 -7.7394392521e-04 0.0
-3.0120742054e-02 -3.7179071468e-02 0.0
-3.4969622982e-05 8.3289369449e-04 0.0
-3.2647424566e-03 1.3566468055e-02 0.0
9.1269972190e-03 5.8381977476e-02 0.0
-1.0240366821e-02 3.5032620988e-02 0.0
-8.4941955573e-03 1.1006534833e-02 0.0
-2.3297713899e-02 -9.1991262968e-03 0.0
-3.6702493174e-02 -8.8481733170e-02 0.0
1.3163685589e-01 9.4558916293e-03 0.0
1.4004169274e-01 4.1099832073e-02 0.0
1.5571350920e-01 8.7985117706e-02 0.0
-1.2825130399e-02 5.5010567321e-02 0.0
-3.4520170209e-02 -1.7041582460e-02 0.0
-3.0955426813e-02 3.5892471274e-02 0.0
-7.2560886253e-02 2.5723163953e-02 0.0
-6.4817267397e-02 -2.4053874072e-02 0.0
-6.1570917246e-02 -8.7943289199e-02 0.0
-4.4207596598e-02 -1.2519672605e-01 0.0
-4.9284273613e-03 -8.4195901773e-02 0.0
-3.9194254589e-03 -3.8716679754e-02 0.0
-5.7279389435e-03 -3.8894742374e-02 0.0
2.0871483523e-03 -2.2435912494e-03 0.0
3.0929719889e-03 6.7843198847e-04 0.0
1.6135975466e-02 8.0407910404e-03 0.0
-1.1165604811e-02 4.7462451207e-02 0.0
-3.5622060526e-02 -6.3733107879e-02 0.0
-4.4420723594e-02 -1.0879132060e-01 0.0
-3.1367523078e-02 -2.5547191960e-02 0.0
-4.9730706666e-02 -9.0456315075e-02 0.0
2.3432480601e-02 -3.2888291763e-02 0.0
1.5563433913e-02 1.0797069979e-03 0.0
9.1439381748e-03 1.3032920160e-02 0.0
-7.5547074323e-03 1.5572470273e-02 0.0
-6.4343026537e-03 2.6151278349e-02 0.0
-6.1070644597e-03 3.6868136017e-02 0.0
9.4420986876e-03 6.6301047791e-02 0.0
-8.2298554149e-03 5.5076639051e-02 0.0
-9.3427283266e-03 2.8680729535e-02 0.0
-2.6534677791e-02 -5.9088828865e-03 0.0
-2.8478305423e-02 -4.6170278902e-02 0.0
1.3205410639e-01 -2.4622947169e-03 0.0
1.4404893058e-01 4.9016152536e-02 0.0
1.5101551595e-01 7.0766798449e-02 0.0
-1.2324610525e-02 6.2383583405e-02 0.0
-3.4968779097e-02 -3.6802251081e-03 0.0
-3.3212260470e-02 2.2588227446e-02 0.0
-6.5900234680e-02 3.9087565655e-02 0.0
-6.9798118411e-02 -3.2565692666e-02 0.0
-5.9476514983e-02 -9.3991425968e-02 0.0
-4.9304828517e-02 -1.3809648568e-01 0.0
-3.6971098889e-03 -1.0031120228e-01 0.0
-4.1845859675e-03 -5.1971282856e-02 0.0
-5.1751142115e-03 -3.8261333217e-02 0.0
1.0157234646e-03 -1.7732613339e-02 0.0
5.5099086651e-03 -1.8276513080e-03 0.0
2.4554373454e-02 2.8027219967e-02 0.0
-1.1079879627e-02 5.6520430444e-02 0.0
-4.3642663550e-02 -7.3315857933e-03 0.0
-4.7036332876e-02 -7.8197626103e-02 0.0
-3.6800714256e-02 -7.6804775113e-02 0.0
-5.3242740142e-02 -7.9077493048e-02 0.0
-2.8233363333e-02 -9.7096301130e-02 0.0
2.1047212897e-02 -4.4520166331e-03 0.0
1.0622475671e-02 2.2035642746e-02 0.0
-6.0615512996e-03 2.6007975204e-02 0.0
-8.1723687019e-03 3.0403208146e-02 0.0
-7.1879149743e-03 3.7646093107e-02 0.0
1.4081800119e-02 6.0529334856e-02 0.0
-5.4835182114e-03 5.5705293077e-02 0.0
-1.1579865909e-02 1.9696875783e-02 0.0
-2.5142878494e-02 -1.2650663028e-02 0.0
-2.8324735391e-02 -3.9338907070e-02 0.0
1.3242309767e-01 -6.1888775453e-03 0.0
1.4870998345e-01 6.1916135038e-02 0.0
1.4625216579e-01 6.4023090931e-02 0.0
-1.2241097872e-02 6.2736679365e-02 0.0
-3.7559439613e-02 -1.2091160758e-02 0.0
-3.2769603983e-02 1.5179324656e-02 0.0
-6.2670870284e-02 4.8260185556e-02 0.0
-7.4024155372e-02 -4.8905514549e-02 0.0
-5.5620538245e-02 -9.3321039133e-02 0.0
-5.4404412674e-02 -1.4041847630e-01 0.0
-1.5450581840e-03 -9.6541131233e-02 0.0
-4.9359979715e-03 -4.0853978348e-02 0.0
-5.1725025364e-03 -3.5263495639e-02 0.0
8.6437240509e-04 -2.0633599796e-02 0.0
6.0372734503e-03 1.4106998367e-03 0.0
2.7635281890e-02 2.8396160537e-02 0.0
-4.8093014801e-03 5.2573013663e-02 0.0
-3.5325993233e-02 -3.1197045924e-03 0.0
-4.6483020686e-02 -8.0188644071e-02 0.0
-3.7815985073e-02 -8.7167437013e-02 0.0
-4.7447484916e-02 -7.5747864157e-02 0.0
-2.1838970369e-02 -9.3248183613e-02 0.0
-2.8158815540e-02 -6.1966847343e-02 0.0
1.1320046621e-02 1.4496970422e-02 0.0
-5.6734392547e-03 2.7222092144e-02 0.0
-9.3000935206e-03 3.2788002987e-02 0.0
-6.3626635770e-03 4.1544043295e-02 0.0
1.4596250950e-02 6.2998349948e-02 0.0
-4.2565047774e-03 4.9977895527e-02 0.0
-8.3486564994e-03 1.6204426055e-02 0.0
-2.5375065220e-02 -1.7080429527e-02 0.0
-2.8176017053e-02 -3.7673598189e-02 0.0
1.3372559264e-01 2.6614725214e-03 0.0
1.4790271341e-01 5.7832120641e-02 0.0
1.4462620359e-01 6.5659944046e-02 0.0
-1.5892446576e-02 5.0532243621e-02 0.0
-3.6704107996e-02 -1.0167810083e-02 0.0
-3.3005821853e-02 1.0475525749e-02 0.0
-6.2170244641e-02 4.5430578246e-02 0.0
-7.3434895641e-02 -4.9889545606e-02 0.0
-5.7404263796e-02 -9.9561427803e-02 0.0
-5.4615329863e-02 -1.3793032364e-01 0.0
-2.1541975996e-03 -9.4980398697e-02 0.0
-4.4231361718e-03 -3.8358904567e-02 0.0
-5.2862051899e-03 -3.5033942724e-02 0.0
8.9292721872e-04 -2.0615062866e-02 0.0
5.8104448407e-03 -1.3715011636e-03 0.0
2.8344535263e-02 3.3561404799e-02 0.0
2.0771805915e-03 4.7182544501e-02 0.0
-3.5903571675e-02 -5.4646237140e-03 0.0
-4.2360807043e-02 -8.5353636144e-02 0.0
-3.9048239957e-02 -9.5568628872e-02 0.0
-4.9994333032e-02 -7.7970367611e-02 0.0
-1.6905656837e-02 -8.4657279647e-02 0.0
-2.2099849874e-02 -5.4576792628e-02 0.0
-3.5172573153e-02 -1.6110268005e-02 0.0
-4.2681203123e-03 2.9295274267e-02 0.0
-1.4156513627e-02 3.1990017432e-02 0.0
-5.0414723059e-03 4.3214973049e-02 0.0
1.3763011056e-02 6.4564312159e-02 0.0
-3.7029676627e-03 4.8303052207e-02 0.0
-6.0064282194e-03 1.5328179588e-02 0.0
-2.4382605590e-02 -1.9364962375e-02 0.0
-2.8259154446e-02 -3.5367317949e-02 0.0
1.3509487434e-01 9.3450861150e-03 0.0
1.4668725470e-01 5.6215286068e-02 0.0
1.4488243365e-01 6.7103654524e-02 0.0
-1.8533721526e-02 4.3961722841e-02 0.0
-3.6153692377e-02 -1.3540820915e-02 0.0
-3.2994653473e-02 9.1785390922e-03 0.0
-6.1757490923e-02 4.1909931575e-02 0.0
-7.3141247335e-02 -5.2805666005e-02 0.0
-5.8635300061e-02 -1.0280800966e-01 0.0
-5.4534846589e-02 -1.3597495171e-01 0.0
-2.6946143167e-03 -9.2756351139e-02 0.0
-4.0467801207e-03 -3.5632657012e-02 0.0
-5.3663103566e-03 -3.3745623232e-02 0.0
9.1831550024e-04 -2.0138776030e-02 0.0
5.6261420706e-03 -2.5699007611e-03 0.0
2.8845835210e-02 3.7051591342e-02 0.0
2.7075793524e-03 4.5249505650e-02 0.0
-3.6259616604e-02 -1.0495989606e-02 0.0
-3.9172211337e-02 -8.6900825531e-02 0.0
-4.0482159439e-02 -1.0007589242e-01 0.0
-5.1332752752e-02 -7.5660740846e-02 0.0
-2.0378362588e-02 -7.2582016088e-02 0.0
-1.5045612431e-02 -4.8170857709e-02 0.0
-3.6586741555e-02 -1.1325293593e-02 0.0
-3.3403987353e-02 -1.7354279680e-02 0.0
-1.6181765654e-02 3.0069712330e-02 0.0
-1.0158659924e-03 4.5794160917e-02 0.0
1.2592725820e-02 6.5507736997e-02 0.0
-3.6508566548e-03 4.8156735975e-02 0.0
-5.3927358417e-03 1.5108827794e-02 0.0
-2.3627954630e-02 -2.0271579660e-02 0.0
-3.6405652776e-02 -3.6275748374e-02 0.0
1.3585613883e-01 1.4118357703e-02 0.0
1.4578076650e-01 5.4305919235e-02 0.0
1.4531296314e-01 6.8380687808e-02 0.0
-2.0408048482e-02 3.8272255882e-02 0.0
-3.5695077374e-02 -1.5308269962e-02 0.0
-3.2956423801e-02 9.7534928507e-03 0.0
-6.1664757679e-02 3.8745695587e-02 0.0
-7.2822910974e-02 -5.4412136000e-02 0.0
-5.9558663752e-02 -1.0445277717e-01 0.0
-5.4366317518e-02 -1.3498256494e-01 0.0
-3.1349081673e-03 -9.1027803743e-02 0.0
-3.7836401362e-03 -3.4179889169e-02 0.0
-5.4152295592e-03 -3.3091576082e-02 0.0
9.5704291830e-04 -1.9555546313e-02 0.0
5.4739191653e-03 -3.5066097920e-03 0.0
2.9127315200e-02 3.9292620037e-02 0.0
3.1592496648e-03 4.3990248683e-02 0.0
-3.7104273748e-02 -1.5194919998e-02 0.0
-3.7557970308e-02 -8.7611063530e-02 0.0
-4.2010793297e-02 -1.0232216469e-01 0.0
-5.1916263353e-02 -7.4700687241e-02 0.0
-2.2417990600e-02 -6.5587658296e-02 0.0
-1.9939310082e-02 -4.3602985575e-02 0.0
-3.7715536616e-02 -1.0135238129e-02 0.0
-3.1394579145e-02 -1.8125308530e-02 0.0
4.6257212101e-04 -1.2954819324e-02 0.0
3.8542534653e-05 4.7310488139e-02 0.0
8.3998865496e-03 6.7902939348e-02 0.0
-3.6716499513e-03 4.9707314148e-02 0.0
-5.5723428412e-03 1.6746036462e-02 0.0
-2.3257551555e-02 -2.0102219250e-02 0.0
-4.2989494864e-02 -3.9110087788e-02 0.0
1.3042319492e-01 1.5964269411e-02 0.0
1.4515483543e-01 5.2393718794e-02 0.0
1.4575388035e-01 7.0084940478e-02 0.0
-2.1654097159e-02 3.4310900311e-02 0.0
-3.5324945174e-02 -1.6089411498e-02 0.0
-3.2879839016e-02 1.0973277923e-02 0.0
-6.1829491546e-02 3.5949559941e-02 0.0
-7.2421220337e-02 -5.4840731536e-02 0.0
-6.0276006395e-02 -1.0550513376e-01 0.0
-5.4048198452e-02 -1.3463642115e-01 0.0
-3.4754092194e-03 -8.9776591658e-02 0.0
-3.6197559352e-03 -3.3579356574e-02 0.0
-5.4488653536e-03 -3.2890949418e-02 0.0
1.0222369068e-03 -1.8879690146e-02 0.0
5.3508616037e-03 -4.4436518417e-03 0.0
2.9210975347e-02 4.0620550620e-02 0.0
3.5093866244e-03 4.3468687075e-02 0.0
-3.7670924895e-02 -1.8020337338e-02 0.0
-3.7473144110e-02 -8.8042459266e-02 0.0
-4.3005474999e-02 -1.0261999672e-01 0.0
-5.1879503634e-02 -7.3876487735e-02 0.0
-2.5132114571e-02 -6.1783314046e-02 0.0
-2.4039308677e-02 -3.9283635072e-02 0.0
-3.6328550432e-02 -9.5774336112e-03 0.0
-2.9498820552e-02 -1.8091870722e-02 0.0
2.8698723969e-03 -1.0477386784e-02 0.0
5.8414455868e-03 6.1669140572e-03 0.0
6.8164753140e-03 6.9440021060e-02 0.0
-7.4499665670e-03 5.1027442616e-02 0.0
-5.7497325251e-03 2.0075439493e-02 0.0
-2.2774873635e-02 -1.9019266643e-02 0.0
-4.5934853828e-02 -4.3639879280e-02 0.0
1.2625270441e-01 1.6511804800e-02 0.0
1.4478688684e-01 5.0791695588e-02 0.0
1.4636495765e-01 7.2282483233e-02 0.0
-2.2357173796e-02 3.1936695639e-02 0.0
-3.5066186380e-02 -1.6395107596e-02 0.0
-3.2756738514e-02 1.2871737557e-02 0.0
-6.2283303467e-02 3.3712570454e-02 0.0
-7.1905962191e-02 -5.4279532979e-02 0.0
-6.0836327601e-02 -1.0624163558e-01 0.0