# vtk DataFile Version 3.0
D2Q9 Periodic Hill Flow at timestep 20000
ASCII
DATASET STRUCTURED_GRID
DIMENSIONS 33 16 1
POINTS 528 double
0.0000000000e+00 1.0381750000e+00 0.0
2.8125000000e-01 1.0161249342e+00 0.0
5.6250000000e-01 8.4579376806e-01 0.0
8.4375000000e-01 6.0969528778e-01 0.0
1.1250000000e+00 3.8986862790e-01 0.0
1.4062500000e+00 1.9393900392e-01 0.0
1.6875000000e+00 7.1699397761e-02 0.0
1.9687500000e+00 3.8175000000e-02 0.0
2.2500000000e+00 3.8175000000e-02 0.0
2.5312500000e+00 3.8175000000e-02 0.0
2.8125000000e+00 3.8175000000e-02 0.0
3.0937500000e+00 3.8175000000e-02 0.0
3.3750000000e+00 3.8175000000e-02 0.0
3.6562500000e+00 3.8175000000e-02 0.0
3.9375000000e+00 3.8175000000e-02 0.0
4.2187500000e+00 3.8175000000e-02 0.0
4.5000000000e+00 3.8175000000e-02 0.0
4.7812500000e+00 3.8175000000e-02 0.0
5.0625000000e+00 3.8175000000e-02 0.0
5.3437500000e+00 3.8175000000e-02 0.0
5.6250000000e+00 3.8175000000e-02 0.0
5.9062500000e+00 3.8175000000e-02 0.0
6.1875000000e+00 3.8175000000e-02 0.0
6.4687500000e+00 3.8175000000e-02 0.0
6.7500000000e+00 3.8175000000e-02 0.0
7.0312500000e+00 3.8175000000e-02 0.0
7.3125000000e+00 7.1699397761e-02 0.0
7.5937500000e+00 1.9393900392e-01 0.0
7.8750000000e+00 3.8986862790e-01 0.0
8.1562500000e+00 6.0969528778e-01 0.0
8.4375000000e+00 8.4579376806e-01 0.0
8.7187500000e+00 1.0161249342e+00 0.0
9.0000000000e+00 1.0381750000e+00 0.0
0.0000000000e+00 1.1145250000e+00 0.0
2.8125000000e-01 1.0933340277e+00 0.0
5.6250000000e-01 9.2963914074e-01 0.0
8.4375000000e-01 7.0273930254e-01 0.0
1.1250000000e+00 4.9147731772e-01 0.0
1.4062500000e+00 3.0318131545e-01 0.0
1.6875000000e+00 1.8570429135e-01 0.0
1.9687500000e+00 1.5348603896e-01 0.0
2.2500000000e+00 1.5348603896e-01 0.0
2.5312500000e+00 1.5348603896e-01 0.0
2.8125000000e+00 1.5348603896e-01 0.0
3.0937500000e+00 1.5348603896e-01 0.0
3.3750000000e+00 1.5348603896e-01 0.0
3.6562500000e+00 1.5348603896e-01 0.0
3.9375000000e+00 1.5348603896e-01 0.0
4.2187500000e+00 1.5348603896e-01 0.0
4.5000000000e+00 1.5348603896e-01 0.0
4.7812500000e+00 1.5348603896e-01 0.0
5.0625000000e+00 1.5348603896e-01 0.0
5.3437500000e+00 1.5348603896e-01 0.0
5.6250000000e+00 1.5348603896e-01 0.0
5.9062500000e+00 1.5348603896e-01 0.0
6.1875000000e+00 1.5348603896e-01 0.0
6.4687500000e+00 1.5348603896e-01 0.0
6.7500000000e+00 1.5348603896e-01 0.0
7.0312500000e+00 1.5348603896e-01 0.0
7.3125000000e+00 1.8570429135e-01 0.0
7.5937500000e+00 3.0318131545e-01 0.0
7.8750000000e+00 4.9147731772e-01 0.0
8.1562500000e+00 7.0273930254e-01 0.0
8.4375000000e+00 9.2963914074e-01 0.0
8.7187500000e+00 1.0933340277e+00 0.0
9.0000000000e+00 1.1145250000e+00 0.0
0.0000000000e+00 1.2077762062e+00 0.0
2.8125000000e-01 1.1876345004e+00 0.0
5.6250000000e-01 1.0320449316e+00 0.0
8.4375000000e-01 8.1637999156e-01 0.0
1.1250000000e+00 6.1557859980e-01 0.0
1.4062500000e+00 4.3660603476e-01 0.0
1.6875000000e+00 3.2494586098e-01 0.0
1.9687500000e+00 2.9432288862e-01 0.0
2.2500000000e+00 2.9432288862e-01 0.0
2.5312500000e+00 2.9432288862e-01 0.0
2.8125000000e+00 2.9432288862e-01 0.0
3.0937500000e+00 2.9432288862e-01 0.0
3.3750000000e+00 2.9432288862e-01 0.0
3.6562500000e+00 2.9432288862e-01 0.0
3.9375000000e+00 2.9432288862e-01 0.0
4.2187500000e+00 2.9432288862e-01 0.0
4.5000000000e+00 2.9432288862e-01 0.0
4.7812500000e+00 2.9432288862e-01 0.0
5.0625000000e+00 2.9432288862e-01 0.0
5.3437500000e+00 2.9432288862e-01 0.0
5.6250000000e+00 2.9432288862e-01 0.0
5.9062500000e+00 2.9432288862e-01 0.0
6.1875000000e+00 2.9432288862e-01 0.0
6.4687500000e+00 2.9432288862e-01 0.0
6.7500000000e+00 2.9432288862e-01 0.0
7.0312500000e+00 2.9432288862e-01 0.0
7.3125000000e+00 3.2494586098e-01 0.0
7.5937500000e+00 4.3660603476e-01 0.0
7.8750000000e+00 6.1557859980e-01 0.0
8.1562500000e+00 8.1637999156e-01 0.0
8.4375000000e+00 1.0320449316e+00 0.0
8.7187500000e+00 1.1876345004e+00 0.0
9.0000000000e+00 1.2077762062e+00 0.0
0.0000000000e+00 1.3193302628e+00 0.0
2.8125000000e-01 1.3004437680e+00 0.0
5.6250000000e-01 1.1545503861e+00 0.0
8.4375000000e-01 9.5232547010e-01 0.0
1.1250000000e+00 7.6403782092e-01 0.0
1.4062500000e+00 5.9621864774e-01 0.0
1.6875000000e+00 4.9151702468e-01 0.0
1.9687500000e+00 4.6280244544e-01 0.0
2.2500000000e+00 4.6280244544e-01 0.0
2.5312500000e+00 4.6280244544e-01 0.0
2.8125000000e+00 4.6280244544e-01 0.0
3.0937500000e+00 4.6280244544e-01 0.0
3.3750000000e+00 4.6280244544e-01 0.0
3.6562500000e+00 4.6280244544e-01 0.0
3.9375000000e+00 4.6280244544e-01 0.0
4.2187500000e+00 4.6280244544e-01 0.0
4.5000000000e+00 4.6280244544e-01 0.0
4.7812500000e+00 4.6280244544e-01 0.0
5.0625000000e+00 4.6280244544e-01 0.0
5.3437500000e+00 4.6280244544e-01 0.0
5.6250000000e+00 4.6280244544e-01 0.0
5.9062500000e+00 4.6280244544e-01 0.0
6.1875000000e+00 4.6280244544e-01 0.0
6.4687500000e+00 4.6280244544e-01 0.0
6.7500000000e+00 4.6280244544e-01 0.0
7.0312500000e+00 4.6280244544e-01 0.0
7.3125000000e+00 4.9151702468e-01 0.0
7.5937500000e+00 5.9621864774e-01 0.0
7.8750000000e+00 7.6403782092e-01 0.0
8.1562500000e+00 9.5232547010e-01 0.0
8.4375000000e+00 1.1545503861e+00 0.0
8.7187500000e+00 1.3004437680e+00 0.0
9.0000000000e+00 1.3193302628e+00 0.0
0.0000000000e+00 1.4495132424e+00 0.0
2.8125000000e-01 1.4320915722e+00 0.0
5.6250000000e-01 1.2975135877e+00 0.0
8.4375000000e-01 1.1109731070e+00 0.0
1.1250000000e+00 9.3728892765e-01 0.0
1.4062500000e+00 7.8248570235e-01 0.0
1.6875000000e+00 6.8590467030e-01 0.0
1.9687500000e+00 6.5941717548e-01 0.0
2.2500000000e+00 6.5941717548e-01 0.0
2.5312500000e+00 6.5941717548e-01 0.0
2.8125000000e+00 6.5941717548e-01 0.0
3.0937500000e+00 6.5941717548e-01 0.0
3.3750000000e+00 6.5941717548e-01 0.0
3.6562500000e+00 6.5941717548e-01 0.0
3.9375000000e+00 6.5941717548e-01 0.0
4.2187500000e+00 6.5941717548e-01 0.0
4.5000000000e+00 6.5941717548e-01 0.0
4.7812500000e+00 6.5941717548e-01 0.0
5.0625000000e+00 6.5941717548e-01 0.0
5.3437500000e+00 6.5941717548e-01 0.0
5.6250000000e+00 6.5941717548e-01 0.0
5.9062500000e+00 6.5941717548e-01 0.0
6.1875000000e+00 6.5941717548e-01 0.0
6.4687500000e+00 6.5941717548e-01 0.0
6.7500000000e+00 6.5941717548e-01 0.0
7.0312500000e+00 6.5941717548e-01 0.0
7.3125000000e+00 6.8590467030e-01 0.0
7.5937500000e+00 7.8248570235e-01 0.0
7.8750000000e+00 9.3728892765e-01 0.0
8.1562500000e+00 1.1109731070e+00 0.0
8.4375000000e+00 1.2975135877e+00 0.0
8.7187500000e+00 1.4320915722e+00 0.0
9.0000000000e+00 1.4495132424e+00 0.0
0.0000000000e+00 1.5971143014e+00 0.0
2.8125000000e-01 1.5813534446e+00 0.0
5.6250000000e-01 1.4596048228e+00 0.0
8.4375000000e-01 1.2908473063e+00 0.0
1.1250000000e+00 1.1337204957e+00 0.0
1.4062500000e+00 9.9367471176e-01 0.0
1.6875000000e+00 9.0630078063e-01 0.0
1.9687500000e+00 8.8233834724e-01 0.0
2.2500000000e+00 8.8233834724e-01 0.0
2.5312500000e+00 8.8233834724e-01 0.0
2.8125000000e+00 8.8233834724e-01 0.0
3.0937500000e+00 8.8233834724e-01 0.0
3.3750000000e+00 8.8233834724e-01 0.0
3.6562500000e+00 8.8233834724e-01 0.0
3.9375000000e+00 8.8233834724e-01 0.0
4.2187500000e+00 8.8233834724e-01 0.0
4.5000000000e+00 8.8233834724e-01 0.0
4.7812500000e+00 8.8233834724e-01 0.0
5.0625000000e+00 8.8233834724e-01 0.0
5.3437500000e+00 8.8233834724e-01 0.0
5.6250000000e+00 8.8233834724e-01 0.0
5.9062500000e+00 8.8233834724e-01 0.0
6.1875000000e+00 8.8233834724e-01 0.0
6.4687500000e+00 8.8233834724e-01 0.0
6.7500000000e+00 8.8233834724e-01 0.0
7.0312500000e+00 8.8233834724e-01 0.0
7.3125000000e+00 9.0630078063e-01 0.0
7.5937500000e+00 9.9367471176e-01 0.0
7.8750000000e+00 1.1337204957e+00 0.0
8.1562500000e+00 1.2908473063e+00 0.0
8.4375000000e+00 1.4596048228e+00 0.0
8.7187500000e+00 1.5813534446e+00 0.0
9.0000000000e+00 1.5971143014e+00 0.0
0.0000000000e+00 1.7590868131e+00 0.0
2.8125000000e-01 1.7451484779e+00 0.0
5.6250000000e-01 1.6374783736e+00 0.0
8.4375000000e-01 1.4882352927e+00 0.0
1.1250000000e+00 1.3492779901e+00 0.0
1.4062500000e+00 1.2254265334e+00 0.0
1.6875000000e+00 1.1481561697e+00 0.0
1.9687500000e+00 1.1269646551e+00 0.0
2.2500000000e+00 1.1269646551e+00 0.0
2.5312500000e+00 1.1269646551e+00 0.0
2.8125000000e+00 1.1269646551e+00 0.0
3.0937500000e+00 1.1269646551e+00 0.0
3.3750000000e+00 1.1269646551e+00 0.0
3.6562500000e+00 1.1269646551e+00 0.0
3.9375000000e+00 1.1269646551e+00 0.0
4.2187500000e+00 1.1269646551e+00 0.0
4.5000000000e+00 1.1269646551e+00 0.0
4.7812500000e+00 1.1269646551e+00 0.0
5.0625000000e+00 1.1269646551e+00 0.0
5.3437500000e+00 1.1269646551e+00 0.0
5.6250000000e+00 1.1269646551e+00 0.0
5.9062500000e+00 1.1269646551e+00 0.0
6.1875000000e+00 1.1269646551e+00 0.0
6.4687500000e+00 1.1269646551e+00 0.0
6.7500000000e+00 1.1269646551e+00 0.0
7.0312500000e+00 1.1269646551e+00 0.0
7.3125000000e+00 1.1481561697e+00 0.0
7.5937500000e+00 1.2254265334e+00 0.0
7.8750000000e+00 1.3492779901e+00 0.0
8.1562500000e+00 1.4882352927e+00 0.0
8.4375000000e+00 1.6374783736e+00 0.0
8.7187500000e+00 1.7451484779e+00 0.0
9.0000000000e+00 1.7590868131e+00 0.0
0.0000000000e+00 1.9305824874e+00 0.0
2.8125000000e-01 1.9185738289e+00 0.0
5.6250000000e-01 1.8258099875e+00 0.0
8.4375000000e-01 1.6972286922e+00 0.0
1.1250000000e+00 1.5775091725e+00 0.0
1.4062500000e+00 1.4708041873e+00 0.0
1.6875000000e+00 1.4042314297e+00 0.0
1.9687500000e+00 1.3859737498e+00 0.0
2.2500000000e+00 1.3859737498e+00 0.0
2.5312500000e+00 1.3859737498e+00 0.0
2.8125000000e+00 1.3859737498e+00 0.0
3.0937500000e+00 1.3859737498e+00 0.0
3.3750000000e+00 1.3859737498e+00 0.0
3.6562500000e+00 1.3859737498e+00 0.0
3.9375000000e+00 1.3859737498e+00 0.0
4.2187500000e+00 1.3859737498e+00 0.0
4.5000000000e+00 1.3859737498e+00 0.0
4.7812500000e+00 1.3859737498e+00 0.0
5.0625000000e+00 1.3859737498e+00 0.0
5.3437500000e+00 1.3859737498e+00 0.0
5.6250000000e+00 1.3859737498e+00 0.0
5.9062500000e+00 1.3859737498e+00 0.0
6.1875000000e+00 1.3859737498e+00 0.0
6.4687500000e+00 1.3859737498e+00 0.0
6.7500000000e+00 1.3859737498e+00 0.0
7.0312500000e+00 1.3859737498e+00 0.0
7.3125000000e+00 1.4042314297e+00 0.0
7.5937500000e+00 1.4708041873e+00 0.0
[...]
POINT_DATA 528

SCALARS Density double 1
LOOKUP_TABLE default
5.3731254388e-01
5.4389638493e-01
5.4256098450e-01
5.3830432142e-01
5.2386699902e-01
5.0679509161e-01
5.5113420726e-01
5.5454556428e-01
5.6485371502e-01
5.4465834001e-01
5.0714182632e-01
5.0474842483e-01
5.2899728629e-01
6.0321181395e-01
5.8847566448e-01
5.5708923796e-01
4.8145960364e-01
4.7545647129e-01
4.3325504841e-01
4.1864975778e-01
4.1677388176e-01
4.2147144623e-01
4.3936512901e-01
4.4453437426e-01
4.6798488181e-01
4.7204536082e-01
4.7722459552e-01
4.4470900217e-01
3.9694214981e-01
3.8580139353e-01
3.8520324124e-01
4.1434263684e-01
4.0591293843e-01
5.1362145817e-01
5.2835911407e-01
5.5089426607e-01
5.5797472044e-01
5.3777734759e-01
5.4562160292e-01
5.6529853933e-01
5.8899496862e-01
5.6218137838e-01
5.1061988694e-01
4.8689950426e-01
4.7278725542e-01
6.0386128472e-01
6.0834716739e-01
6.1733224442e-01
5.1233075681e-01
4.7065268613e-01
4.5685795022e-01
4.2784632838e-01
4.0209721308e-01
3.8227627518e-01
3.7980171406e-01
3.9927988131e-01
4.4068418051e-01
4.5504758673e-01
4.6873888113e-01
4.5392623790e-01
4.3864467476e-01
4.2074032129e-01
3.8847290152e-01
3.8534152084e-01
3.9103427676e-01
3.8650279279e-01
5.3887331624e-01
5.7501797373e-01
5.7363631435e-01
5.6362374107e-01
5.5905044140e-01
5.7426053588e-01
5.9979277219e-01
5.7576197481e-01
5.2239828583e-01
4.8289688236e-01
4.8949744655e-01
5.9525203382e-01
6.1949113937e-01
6.1116876892e-01
5.1471713254e-01
4.8184882093e-01
4.5862741408e-01
4.2581905738e-01
4.0201259882e-01
3.7296809728e-01
3.7175698282e-01
3.9342563085e-01
4.3039468769e-01
4.5385987270e-01
4.6370951201e-01
4.5616848320e-01
4.5263277324e-01
4.3585557496e-01
4.0916886770e-01
3.8922031746e-01
3.7881803022e-01
3.7669961363e-01
3.9710219761e-01
5.6269674659e-01
5.7993835027e-01
5.7587010711e-01
5.6654762369e-01
5.7709761484e-01
5.9969891288e-01
5.7544827706e-01
5.1794638544e-01
4.7849815853e-01
4.8189303005e-01
6.0104640180e-01
6.1239339589e-01
6.1756453647e-01
5.0742277184e-01
4.8491754347e-01
4.6330137579e-01
4.1707166157e-01
4.0259521675e-01
3.6722986166e-01
3.7011619521e-01
3.9562333953e-01
4.2978031713e-01
4.5545599283e-01
4.6403502425e-01
4.5813193237e-01
4.5689082865e-01
4.4227314723e-01
4.0822981210e-01
3.8741387145e-01
3.7380650725e-01
3.7346373375e-01
3.9650302862e-01
4.4927330970e-01
5.8390589076e-01
5.7464483358e-01
5.6269303039e-01
5.7779191676e-01
5.9812206874e-01
5.7434674281e-01
5.1400588386e-01
4.7654968935e-01
4.7865774104e-01
6.0842727954e-01
6.1300830481e-01
6.2640779323e-01
4.9931937335e-01
4.8487531753e-01
4.6277726926e-01
4.1351718582e-01
4.0076024806e-01
3.6316166283e-01
3.6954433903e-01
3.9886602394e-01
4.3262797733e-01
4.5696584117e-01
4.6601527058e-01
4.5946896266e-01
4.5935919694e-01
4.4378295652e-01
4.0801747192e-01
3.7961579147e-01
3.7075680468e-01
3.7293409606e-01
3.9942239288e-01
4.6052114661e-01
4.6738781536e-01
5.7671962548e-01
5.5891880286e-01
5.7920398838e-01
5.9832392023e-01
5.7344468415e-01
5.1133446823e-01
4.7582218253e-01
4.7680552335e-01
6.1155750535e-01
6.1540462155e-01
6.2708058937e-01
4.9668323505e-01
4.8189533148e-01
4.6498602771e-01
4.1246449454e-01
3.9752263096e-01
3.6192617327e-01
3.6951687023e-01
4.0048783847e-01
4.3422800884e-01
4.5667940417e-01
4.6641805058e-01
4.6009772138e-01
4.6064162109e-01
4.4262398838e-01
4.0617020684e-01
3.7451584404e-01
3.6930554497e-01
3.7372403903e-01
3.9544619659e-01
4.6316798855e-01
4.7007607920e-01
4.8101643534e-01
5.5711878278e-01
5.7862366033e-01
5.9862845286e-01
5.7333279456e-01
5.1024976888e-01
4.7586134275e-01
4.7395295515e-01
6.1343191527e-01
6.1675247147e-01
6.2703739775e-01
4.9532553959e-01
4.7958061057e-01
4.6650064905e-01
4.1188402526e-01
3.9482571953e-01
3.6168761315e-01
3.6910285504e-01
4.0152517086e-01
4.3559888541e-01
4.5640587614e-01
4.6713761802e-01
4.6045755488e-01
4.6177012222e-01
4.4173099428e-01
4.0435490605e-01
3.7200857312e-01
3.6809095337e-01
3.7461911815e-01
3.9304134476e-01
4.6682213696e-01
4.7266406788e-01
4.8090781320e-01
4.9907515836e-01
5.7778845655e-01
5.9914407307e-01
5.7293055937e-01
5.1065227401e-01
4.7681085710e-01
4.7285221914e-01
6.1428355081e-01
6.1715176977e-01
6.2715393053e-01
4.9472907317e-01
4.7809633062e-01
4.6734942735e-01
4.1197230859e-01
3.9296001915e-01
3.6189516242e-01
3.6884360497e-01
4.0199921072e-01
4.3654732995e-01
4.5605631600e-01
4.6766509349e-01
4.6030166253e-01
4.6260083134e-01
4.4119445261e-01
4.0335581315e-01
3.7161185557e-01
3.6735221687e-01
3.7549230270e-01
3.9040640843e-01
4.6882845653e-01
4.7397722990e-01
4.8050310079e-01
5.0155649990e-01
4.9440502803e-01
5.9926379035e-01
5.7328641012e-01
5.1129486146e-01
4.7925791958e-01
4.7270746700e-01
6.1455003597e-01
6.1596873045e-01
6.2742539841e-01
4.9484835637e-01
4.7697363454e-01
4.6756542695e-01
4.1252536989e-01
3.9193770713e-01
3.6246536155e-01
3.6869726410e-01
4.0185519241e-01
4.3721224025e-01
4.5568574563e-01
4.6802999634e-01
4.5968911936e-01
4.6311519427e-01
4.4104542214e-01
4.0304473349e-01
3.7168611860e-01
3.6696824749e-01
3.7610248329e-01
3.8841277340e-01
4.6922495853e-01
4.7508218992e-01
4.7896563893e-01
5.0365123122e-01
4.9333741677e-01
4.9227633252e-01
5.7428647386e-01
5.1453147582e-01
4.8348657042e-01
4.7234165192e-01
6.1407228515e-01
6.1347877383e-01
6.2994483128e-01
4.9593838693e-01
4.7601180677e-01
4.6723357086e-01
4.1357706035e-01
3.9172207002e-01
3.6336488768e-01
3.6863250112e-01
4.0113508380e-01
4.3762079315e-01
4.5526682261e-01
4.6825953251e-01
4.5861585662e-01
4.6333096998e-01
4.4131890371e-01
4.0339871255e-01
3.7217194670e-01
3.6643718622e-01
3.7658787175e-01
3.8758794001e-01
4.6858748213e-01
4.7610468557e-01
4.7758360244e-01
5.0468001298e-01
4.9264317092e-01
4.9062481521e-01
4.2094900547e-01
5.1758786014e-01
4.8810753758e-01
4.7386375649e-01
6.1185703210e-01
6.0998613418e-01
6.3120813060e-01
5.0110692009e-01
4.7497127294e-01
4.6636603811e-01
4.1522468955e-01
3.9225732591e-01
3.6467947756e-01
3.6865288620e-01
3.9991948274e-01
4.3771589967e-01
4.5486368861e-01
4.6832159992e-01
4.5704356936e-01
4.6325812327e-01
4.4199860061e-01
4.0437777898e-01
3.7315899700e-01
3.6569110485e-01
3.7718079100e-01
3.8755819013e-01
4.6726111157e-01
4.7704475301e-01
4.7613916673e-01
5.0598144201e-01
4.9078522177e-01
4.9052696343e-01
4.2056996624e-01
4.1225208350e-01
4.9397278650e-01
4.7933267321e-01
6.0602167521e-01
6.0667877298e-01
6.2940150490e-01
5.0720084002e-01
4.7366437728e-01
4.6497745060e-01
4.1728972902e-01
3.9351170010e-01
3.6649748817e-01
3.6859976801e-01
3.9825317436e-01
4.3730485561e-01
4.5474898069e-01
4.6757292703e-01
4.5507990655e-01
4.6261240203e-01
4.4289602195e-01
4.0598908305e-01
3.7455165753e-01
3.6475849429e-01
3.7781341113e-01
3.8741316844e-01
4.6546361689e-01
4.7761257735e-01
4.7572474847e-01
5.0589561512e-01
4.8878580955e-01
4.9213896929e-01
4.2020403123e-01
4.1258510710e-01
3.9107429339e-01
4.8781948978e-01
5.8920896311e-01
6.0687344821e-01
6.2101621761e-01
5.1247322415e-01
4.7586570569e-01
4.6193207633e-01
4.2062459490e-01
3.9584584230e-01
3.6825642748e-01
3.6892238034e-01
3.9640363400e-01
4.3609623847e-01
4.5457456767e-01
4.6510339256e-01
4.5407352730e-01
4.6053392810e-01
4.4518000542e-01
4.0810823038e-01
3.7577106934e-01
3.6606671258e-01
3.7594513991e-01
3.8949998835e-01
4.6265255319e-01
4.7716985854e-01
4.7727443079e-01
5.0052062381e-01
4.9290474985e-01
4.8620769438e-01
4.2652813042e-01
4.1055822966e-01
3.9388981609e-01
3.9123342832e-01
5.8061822683e-01
6.2447030095e-01
6.0622263374e-01
5.2294221407e-01
4.8033231599e-01
4.5656796772e-01
4.2378406119e-01
3.9743500257e-01
3.6766089932e-01
3.6950969783e-01
3.9420579248e-01
4.3217372154e-01
4.5514988502e-01
4.6173037408e-01
4.5694261108e-01
4.5716636166e-01
4.4749924123e-01
4.0913971080e-01
3.7699781767e-01
3.6592770314e-01
3.7137011543e-01
3.9369612089e-01
4.5731318122e-01
4.7571813853e-01
4.7975835393e-01
4.9623590230e-01
4.9877091080e-01
4.7946683232e-01
4.3602104285e-01
4.0588606060e-01
3.9372218531e-01
3.9257509844e-01
4.2534724081e-01
6.3833072019e-01
6.0924755984e-01
5.3123432842e-01
4.9401447671e-01
4.5521569465e-01
4.1966202310e-01
3.9955199501e-01
3.5270884048e-01
3.6062786767e-01
3.8441337385e-01
4.2109102641e-01
4.5303261558e-01
4.5869914573e-01
4.5828706727e-01
4.5465935231e-01
4.4720495574e-01
4.0623292710e-01
3.6878447399e-01
3.5898780495e-01
3.6036275782e-01
3.8528622471e-01
4.5677995117e-01
4.6663894757e-01
4.8178403505e-01
4.9459194040e-01
5.0141919704e-01
4.8621810261e-01
4.2859166879e-01
4.0875689715e-01
3.8020134256e-01
3.8481541555e-01
4.1658113845e-01
4.5259752987e-01
6.3582129335e-01
5.5874638000e-01
5.1331243699e-01
4.7266133162e-01
4.5099995054e-01
3.9539018761e-01
3.3501647665e-01
3.2579924416e-01
3.4707594238e-01
4.0184946251e-01
4.3589992027e-01
4.4594477774e-01
4.6086804776e-01
4.6575215785e-01
4.7465159314e-01
4.1895994118e-01
3.5783624284e-01
3.3198608516e-01
3.3602452936e-01
3.5634599161e-01
4.2268568976e-01
4.6355673016e-01
4.7323032723e-01
4.8406963067e-01
5.0275683594e-01
5.0478137421e-01
4.6003914083e-01
3.9708688884e-01
3.6604389893e-01
3.6520689267e-01
3.9613686978e-01
4.3756566976e-01
4.5965445907e-01

VECTORS Velocity double
-4.2430042754e-02 9.0349222948e-02 0.0
-5.0339118157e-02 1.1396890388e-01 0.0
-2.6497940435e-02 8.3054748765e-03 0.0
2.7662721325e-03 -3.6219342808e-02 0.0
-1.6205213883e-02 8.8187743715e-03 0.0
-1.9134767811e-04 -2.9613589416e-02 0.0
-6.1402813400e-02 8.5827054900e-02 0.0
3.2401317966e-03 1.1192962477e-02 0.0
-2.5568640089e-02 7.1232952250e-02 0.0
-3.3242802523e-02 5.0293391186e-02 0.0
-3.3297420049e-02 6.8307465402e-02 0.0
-5.8265497302e-02 7.3711490538e-02 0.0
-5.7193045894e-02 1.2071063323e-01 0.0
1.4275170273e-01 -3.5007998633e-02 0.0
1.4232548671e-01 3.1113058355e-03 0.0
1.5034430541e-01 -2.1433789010e-02 0.0
-3.2140176594e-02 -3.6355179499e-03 0.0
-3.2281268222e-02 -2.9796372198e-03 0.0
-3.6287124090e-02 3.2237650834e-03 0.0
-6.3622803204e-02 -1.3823518954e-02 0.0
-4.3223189283e-02 3.8391568591e-02 0.0
-3.5972961015e-02 1.5587463619e-02 0.0
-2.9076700609e-02 -6.2498726142e-03 0.0
4.6079361426e-03 1.5806649283e-02 0.0
6.7831272864e-03 2.0491765668e-02 0.0
8.6492381094e-03 5.1067499927e-03 0.0
1.4124117401e-03 1.6944599885e-02 0.0
1.3704701845e-02 7.4271448808e-04 0.0
2.6136905126e-02 -7.8041393170e-03 0.0
1.3846390152e-01 1.3291772697e-01 0.0
1.6061737708e-01 1.7276783641e-01 0.0
-5.1457122403e-02 -6.6937564468e-02 0.0
-1.6150119505e-02 9.6003360534e-02 0.0
-1.2622604607e-03 -8.1454979033e-02 0.0
1.7173906839e-02 -7.9353953976e-02 0.0
2.7641483434e-02 -2.2279422620e-02 0.0
2.7184230686e-02 -5.0373370817e-04 0.0
-3.0595934399e-02 -3.7099856394e-02 0.0
-2.4317680689e-04 8.4705603348e-04 0.0
-3.9261608312e-03 1.3053005312e-02 0.0
7.5979803888e-03 5.8405428095e-02 0.0
-1.2162846101e-02 3.4728238635e-02 0.0
-1.0197309183e-02 1.1067632473e-02 0.0
-2.4379978057e-02 -9.0615957649e-03 0.0
-3.7522081711e-02 -8.8240437906e-02 0.0
1.3160398843e-01 9.4747232836e-03 0.0
1.4004226039e-01 4.1102569377e-02 0.0
1.5570412326e-01 8.8005824556e-02 0.0
-1.2797068469e-02 5.4899116319e-02 0.0
-3.4611433730e-02 -1.6568205632e-02 0.0
-3.0670841396e-02 3.5701678834e-02 0.0
-7.5091322873e-02 2.7811788122e-02 0.0
-6.6999345491e-02 -2.3356753991e-02 0.0
-6.3889498756e-02 -8.8365827529e-02 0.0
-4.5946453999e-02 -1.2647960434e-01 0.0
-5.5818162598e-03 -8.4890067033e-02 0.0
-4.5682534309e-03 -3.8782312641e-02 0.0
-6.3701039486e-03 -3.9189256361e-02 0.0
1.5023978910e-03 -1.9330667024e-03 0.0
2.4193152771e-03 1.4736126907e-04 0.0
1.5619674987e-02 7.9983640760e-03 0.0
-1.3392491019e-02 4.7926854172e-02 0.0
-3.8496482571e-02 -6.6034019119e-02 0.0
-4.6649111672e-02 -1.1132972671e-01 0.0
-3.2899272716e-02 -2.5381616240e-02 0.0
-5.1245454786e-02 -9.1484853280e-02 0.0
2.3195100820e-02 -3.2984130783e-02 0.0
1.5432019835e-02 1.0424533454e-03 0.0
9.0461122648e-03 1.3408796344e-02 0.0
-7.7436355627e-03 1.5895936653e-02 0.0
-6.7433587459e-03 2.6180540219e-02 0.0
-6.7800537029e-03 3.6427657239e-02 0.0
7.9143558142e-03 6.6173548444e-02 0.0
-1.0122668997e-02 5.4709695465e-02 0.0
-1.0987964689e-02 2.8483837489e-02 0.0
-2.7643821018e-02 -5.8864187695e-03 0.0
-2.9278428681e-02 -4.6083301659e-02 0.0
1.3203475365e-01 -2.4555641717e-03 0.0
1.4405210739e-01 4.9004928071e-02 0.0
1.5101537958e-01 7.0766564170e-02 0.0
-1.2319344278e-02 6.2382591060e-02 0.0
-3.5003401871e-02 -3.6270088503e-03 0.0
-3.3047847114e-02 2.2948958529e-02 0.0
-6.8303693619e-02 4.0832069321e-02 0.0
-7.2047330295e-02 -3.1446071652e-02 0.0
-6.1817202938e-02 -9.4421720607e-02 0.0
-5.1112324905e-02 -1.3885623689e-01 0.0
-4.3434058520e-03 -1.0083780423e-01 0.0
-4.8563765960e-03 -5.2099167730e-02 0.0
-5.8103630933e-03 -3.8384416740e-02 0.0
4.3059224032e-04 -1.7694810009e-02 0.0
4.8246771234e-03 -2.0837066599e-03 0.0
2.3938217877e-02 2.8010619213e-02 0.0
-1.3243017100e-02 5.7074472577e-02 0.0
-4.6656916631e-02 -7.8302140989e-03 0.0
-4.9616244534e-02 -7.9263428406e-02 0.0
-3.8493744540e-02 -7.7109998284e-02 0.0
-5.4753088653e-02 -7.9711610058e-02 0.0
-2.9401028346e-02 -9.7476093980e-02 0.0
2.0935952490e-02 -4.2484626712e-03 0.0
1.0458217176e-02 2.2340965154e-02 0.0
-6.2225721442e-03 2.6328325858e-02 0.0
-8.5051143025e-03 3.0540622017e-02 0.0
-7.8636834153e-03 3.7181755215e-02 0.0
1.2566036967e-02 6.0372586795e-02 0.0
-7.3617119679e-03 5.5451972662e-02 0.0
-1.3250135222e-02 1.9479409961e-02 0.0
-2.6265313499e-02 -1.2598067747e-02 0.0
-2.9139590553e-02 -3.9314108632e-02 0.0
1.3240739547e-01 -6.1624615148e-03 0.0
1.4870154940e-01 6.1886882786e-02 0.0
1.4625284761e-01 6.4022314209e-02 0.0
-1.2240311302e-02 6.2734450774e-02 0.0
-3.7570861537e-02 -1.2060291635e-02 0.0
-3.2682902019e-02 1.5508011720e-02 0.0
-6.4985236093e-02 5.0173089472e-02 0.0
-7.6397109058e-02 -4.7726468782e-02 0.0
-5.7905134682e-02 -9.4001104902e-02 0.0
-5.6287268381e-02 -1.4118288085e-01 0.0
-2.1614769743e-03 -9.6967064582e-02 0.0
-5.6204619850e-03 -4.0866244650e-02 0.0
-5.8070875851e-03 -3.5303804433e-02 0.0
2.8701157671e-04 -2.0700122681e-02 0.0
5.3398327962e-03 1.2991789380e-03 0.0
2.6981494946e-02 2.8204436282e-02 0.0
-6.9808952544e-03 5.3056256130e-02 0.0
-3.8277804275e-02 -3.3523470696e-03 0.0
-4.9119538128e-02 -8.1075594862e-02 0.0
-3.9439567634e-02 -8.7506917995e-02 0.0
-4.8877933047e-02 -7.6200947965e-02 0.0
-2.3028179016e-02 -9.3835959971e-02 0.0
-2.8148340168e-02 -6.2015952110e-02 0.0
1.1126339778e-02 1.4816322592e-02 0.0
-5.8544214800e-03 2.7570878265e-02 0.0
-9.6418660156e-03 3.2913836834e-02 0.0
-7.0175383876e-03 4.1131216084e-02 0.0
1.3086768069e-02 6.2789491925e-02 0.0
-6.1527016037e-03 4.9813219794e-02 0.0
-1.0015416421e-02 1.6030196182e-02 0.0
-2.6495678934e-02 -1.7078064555e-02 0.0
-2.9011989465e-02 -3.7681473699e-02 0.0
1.3371987775e-01 2.7034484692e-03 0.0
1.4789718035e-01 5.7813251395e-02 0.0
1.4462835889e-01 6.5669995841e-02 0.0
-1.5891520701e-02 5.0529493796e-02 0.0
-3.6715694859e-02 -1.0142109506e-02 0.0
-3.2924844504e-02 1.0729085048e-02 0.0
-6.4497514171e-02 4.7562404300e-02 0.0
-7.5802968463e-02 -4.8887839123e-02 0.0
-5.9743254615e-02 -1.0026849126e-01 0.0
-5.6505090412e-02 -1.3873204724e-01 0.0
-2.7682180282e-03 -9.5337092187e-02 0.0
-5.1014039179e-03 -3.8444271260e-02 0.0
-5.9199879601e-03 -3.5122555354e-02 0.0
3.2237868672e-04 -2.0686548041e-02 0.0
5.1098972950e-03 -1.5194619863e-03 0.0
2.7705232225e-02 3.3477577210e-02 0.0
-4.5672606654e-05 4.7504984244e-02 0.0
-3.8881658367e-02 -5.5338003949e-03 0.0
-4.4994191205e-02 -8.6097658908e-02 0.0
-4.0658482824e-02 -9.6112698397e-02 0.0
-5.1465356406e-02 -7.8517789583e-02 0.0
-1.8071984256e-02 -8.5336993387e-02 0.0
-2.2060411374e-02 -5.4535872821e-02 0.0
-3.5190952812e-02 -1.6118858149e-02 0.0
-4.4542762315e-03 2.9648045338e-02 0.0
-1.4511305432e-02 3.2099732093e-02 0.0
-5.6823410519e-03 4.2829005648e-02 0.0
1.2251665437e-02 6.4356500464e-02 0.0
-5.6041055099e-03 4.8133869541e-02 0.0
-7.6647894010e-03 1.5204388072e-02 0.0
-2.5497066414e-02 -1.9427523660e-02 0.0
-2.9109716811e-02 -3.5398322830e-02 0.0
1.3509149061e-01 9.3824060085e-03 0.0
1.4668252940e-01 5.6197175178e-02 0.0
1.4488422066e-01 6.7109100892e-02 0.0
-1.8532535331e-02 4.3956761076e-02 0.0
-3.6166233035e-02 -1.3518137800e-02 0.0
-3.2915581696e-02 9.3851700142e-03 0.0
-6.4090109326e-02 4.4177030428e-02 0.0
-7.5513542436e-02 -5.1923125407e-02 0.0
-6.1007236430e-02 -1.0356231304e-01 0.0
-5.6421730163e-02 -1.3678548015e-01 0.0
-3.3094585089e-03 -9.3056630829e-02 0.0
-4.7215895149e-03 -3.5701093482e-02 0.0
-6.0014496779e-03 -3.3829779403e-02 0.0
3.5104896993e-04 -2.0195653776e-02 0.0
4.9233125709e-03 -2.7384330733e-03 0.0
2.8216404335e-02 3.7043503252e-02 0.0
5.9531303668e-04 4.5490634388e-02 0.0
-3.9257888611e-02 -1.0531361414e-02 0.0
-4.1778508431e-02 -8.7576118595e-02 0.0
-4.2100509734e-02 -1.0072967429e-01 0.0
-5.2831373156e-02 -7.6145967156e-02 0.0
-2.1611640382e-02 -7.3076438643e-02 0.0
-1.5061745551e-02 -4.8038860774e-02 0.0
-3.6604567043e-02 -1.1278130177e-02 0.0
-3.3401038286e-02 -1.7354469867e-02 0.0
-1.6535732763e-02 3.0180578857e-02 0.0
-1.5595748094e-03 4.5548300523e-02 0.0
1.1066812838e-02 6.5314030776e-02 0.0
-5.5523811153e-03 4.7966188923e-02 0.0
-7.0489911649e-03 1.5002017693e-02 0.0
-2.4732372914e-02 -2.0369950269e-02 0.0
-3.7269234672e-02 -3.6295704946e-02 0.0
1.3585349130e-01 1.4152214695e-02 0.0
1.4577716433e-01 5.4292598549e-02 0.0
1.4531401171e-01 6.8384635190e-02 0.0
-2.0406507541e-02 3.8267669106e-02 0.0
-3.5709361718e-02 -1.5282870101e-02 0.0
-3.2875327122e-02 9.9256613141e-03 0.0
-6.4004781906e-02 4.1111485716e-02 0.0
-7.5198934258e-02 -5.3629610556e-02 0.0
-6.1949969898e-02 -1.0522984446e-01 0.0
-5.6251554029e-02 -1.3578604910e-01 0.0
-3.7513215710e-03 -9.1301174717e-02 0.0
-4.4555638888e-03 -3.4237895399e-02 0.0
-6.0512906825e-03 -3.3186443752e-02 0.0
3.9240881861e-04 -1.9600348479e-02 0.0
4.7701335648e-03 -3.6990519190e-03 0.0
2.8502040779e-02 3.9339227202e-02 0.0
1.0570065967e-03 4.4177337824e-02 0.0
-4.0138171203e-02 -1.5292396301e-02 0.0
-4.0138748047e-02 -8.8256374215e-02 0.0
-4.3646199798e-02 -1.0305281650e-01 0.0
-5.3437384056e-02 -7.5159482853e-02 0.0
-2.3681126693e-02 -6.5974715638e-02 0.0
-1.9941207023e-02 -4.3542549749e-02 0.0
-3.7722072774e-02 -1.0048426378e-02 0.0
-3.1391980412e-02 -1.8138729638e-02 0.0
4.5939599615e-04 -1.2975645450e-02 0.0
-4.4765519595e-04 4.7161993295e-02 0.0
6.8245009530e-03 6.7719929571e-02 0.0
-5.5672756773e-03 4.9504392041e-02 0.0
-7.2338472149e-03 1.6641943964e-02 0.0
-2.4350632182e-02 -2.0198625419e-02 0.0
-4.3855234986e-02 -3.9107354897e-02 0.0
1.3042208118e-01 1.5984261779e-02 0.0
1.4515237318e-01 5.2383363640e-02 0.0
1.4575442640e-01 7.0087509016e-02 0.0
-2.1652094882e-02 3.4305123582e-02 0.0
-3.5342049962e-02 -1.6056975586e-02 0.0
-3.2792651047e-02 1.1119598335e-02 0.0
-6.4178108155e-02 3.8379724620e-02 0.0
-7.4796797014e-02 -5.4135703155e-02 0.0
-6.2679281199e-02 -1.0627921411e-01 0.0
-5.5930066287e-02 -1.3544008091e-01 0.0
-4.0937410554e-03 -9.0038954709e-02 0.0
-4.2896317915e-03 -3.3627662338e-02 0.0
-6.0857915644e-03 -3.2995810802e-02 0.0
4.5927910398e-04 -1.8908729603e-02 0.0
4.6469665912e-03 -4.6650581838e-03 0.0
2.8584255928e-02 4.0705906507e-02 0.0
1.4163830571e-03 4.3628117204e-02 0.0
-4.0727335822e-02 -1.8156467493e-02 0.0
-4.0052796446e-02 -8.8666762474e-02 0.0
-4.4648583916e-02 -1.0337998600e-01 0.0
-5.3419249256e-02 -7.4313387282e-02 0.0
-2.6423791633e-02 -6.2098735293e-02 0.0
-2.4030818938e-02 -3.9263321243e-02 0.0
-3.6333572715e-02 -9.5236813631e-03 0.0
-2.9497502081e-02 -1.8110879502e-02 0.0
2.8650997398e-03 -1.0503239310e-02 0.0
5.8797095312e-03 6.2353728258e-03 0.0
5.2555411544e-03 6.9260266287e-02 0.0
-9.3564136367e-03 5.0718161967e-02 0.0
-7.4115803720e-03 1.9962807443e-02 0.0
-2.3858638433e-02 -1.9086458493e-02 0.0
-4.6796219148e-02 -4.3613947718e-02 0.0
1.2625178601e-01 1.6515028293e-02 0.0
1.4478542480e-01 5.0777561687e-02 0.0
1.4636484694e-01 7.2284166811e-02 0.0
-2.2354498756e-02 3.1928819873e-02 0.0
-3.5087434280e-02 -1.6349722468e-02 0.0
-3.2658895440e-02 1.2998464310e-02 0.0
-6.4643330328e-02 3.6177120666e-02 0.0
-7.4275801923e-02 -5.3623474688e-02 0.0
-6.3246085403e-02 -1.0699684157e-01 0.0